# vtk DataFile Version 2.0
step 0 time 0.000000e+00 normalized time 0.000000e+00, generated by simple.py
ASCII
DATASET UNSTRUCTURED_GRID

POINTS 121 float
-5.000000e-01 -5.000000e-01 0.000000e+00
5.000000e-01 -5.000000e-01 0.000000e+00
-4.000000e-01 -5.000000e-01 0.000000e+00
-3.000000e-01 -5.000000e-01 0.000000e+00
-2.000000e-01 -5.000000e-01 0.000000e+00
-1.000000e-01 -5.000000e-01 0.000000e+00
0.000000e+00 -5.000000e-01 0.000000e+00
1.000000e-01 -5.000000e-01 0.000000e+00
2.000000e-01 -5.000000e-01 0.000000e+00
3.000000e-01 -5.000000e-01 0.000000e+00
4.000000e-01 -5.000000e-01 0.000000e+00
5.000000e-01 5.000000e-01 0.000000e+00
5.000000e-01 -4.000000e-01 0.000000e+00
5.000000e-01 -3.000000e-01 0.000000e+00
5.000000e-01 -2.000000e-01 0.000000e+00
5.000000e-01 -1.000000e-01 0.000000e+00
5.000000e-01 0.000000e+00 0.000000e+00
5.000000e-01 1.000000e-01 0.000000e+00
5.000000e-01 2.000000e-01 0.000000e+00
5.000000e-01 3.000000e-01 0.000000e+00
5.000000e-01 4.000000e-01 0.000000e+00
-5.000000e-01 5.000000e-01 0.000000e+00
4.000000e-01 5.000000e-01 0.000000e+00
3.000000e-01 5.000000e-01 0.000000e+00
2.000000e-01 5.000000e-01 0.000000e+00
1.000000e-01 5.000000e-01 0.000000e+00
0.000000e+00 5.000000e-01 0.000000e+00
-1.000000e-01 5.000000e-01 0.000000e+00
-2.000000e-01 5.000000e-01 0.000000e+00
-3.000000e-01 5.000000e-01 0.000000e+00
-4.000000e-01 5.000000e-01 0.000000e+00
-5.000000e-01 4.000000e-01 0.000000e+00
-5.000000e-01 3.000000e-01 0.000000e+00
-5.000000e-01 2.000000e-01 0.000000e+00
-5.000000e-01 1.000000e-01 0.000000e+00
-5.000000e-01 0.000000e+00 0.000000e+00
-5.000000e-01 -1.000000e-01 0.000000e+00
-5.000000e-01 -2.000000e-01 0.000000e+00
-5.000000e-01 -3.000000e-01 0.000000e+00
-5.000000e-01 -4.000000e-01 0.000000e+00
-4.000000e-01 -4.000000e-01 0.000000e+00
-4.000000e-01 -3.000000e-01 0.000000e+00
-4.000000e-01 -2.000000e-01 0.000000e+00
-4.000000e-01 -1.000000e-01 0.000000e+00
-4.000000e-01 0.000000e+00 0.000000e+00
-4.000000e-01 1.000000e-01 0.000000e+00
-4.000000e-01 2.000000e-01 0.000000e+00
-4.000000e-01 3.000000e-01 0.000000e+00
-4.000000e-01 4.000000e-01 0.000000e+00
-3.000000e-01 -4.000000e-01 0.000000e+00
-3.000000e-01 -3.000000e-01 0.000000e+00
-3.000000e-01 -2.000000e-01 0.000000e+00
-3.000000e-01 -1.000000e-01 0.000000e+00
-3.000000e-01 0.000000e+00 0.000000e+00
-3.000000e-01 1.000000e-01 0.000000e+00
-3.000000e-01 2.000000e-01 0.000000e+00
-3.000000e-01 3.000000e-01 0.000000e+00
-3.000000e-01 4.000000e-01 0.000000e+00
-2.000000e-01 -4.000000e-01 0.000000e+00
-2.000000e-01 -3.000000e-01 0.000000e+00
-2.000000e-01 -2.000000e-01 0.000000e+00
-2.000000e-01 -1.000000e-01 0.000000e+00
-2.000000e-01 0.000000e+00 0.000000e+00
-2.000000e-01 1.000000e-01 0.000000e+00
-2.000000e-01 2.000000e-01 0.000000e+00
-2.000000e-01 3.000000e-01 0.000000e+00
-2.000000e-01 4.000000e-01 0.000000e+00
-1.000000e-01 -4.000000e-01 0.000000e+00
-1.000000e-01 -3.000000e-01 0.000000e+00
-1.000000e-01 -2.000000e-01 0.000000e+00
-1.000000e-01 -1.000000e-01 0.000000e+00
-1.000000e-01 0.000000e+00 0.000000e+00
-1.000000e-01 1.000000e-01 0.000000e+00
-1.000000e-01 2.000000e-01 0.000000e+00
-1.000000e-01 3.000000e-01 0.000000e+00
-1.000000e-01 4.000000e-01 0.000000e+00
0.000000e+00 -4.000000e-01 0.000000e+00
0.000000e+00 -3.000000e-01 0.000000e+00
0.000000e+00 -2.000000e-01 0.000000e+00
0.000000e+00 -1.000000e-01 0.000000e+00
0.000000e+00 0.000000e+00 0.000000e+00
0.000000e+00 1.000000e-01 0.000000e+00
0.000000e+00 2.000000e-01 0.000000e+00
0.000000e+00 3.000000e-01 0.000000e+00
0.000000e+00 4.000000e-01 0.000000e+00
1.000000e-01 -4.000000e-01 0.000000e+00
1.000000e-01 -3.000000e-01 0.000000e+00
1.000000e-01 -2.000000e-01 0.000000e+00
1.000000e-01 -1.000000e-01 0.000000e+00
1.000000e-01 0.000000e+00 0.000000e+00
1.000000e-01 1.000000e-01 0.000000e+00
1.000000e-01 2.000000e-01 0.000000e+00
1.000000e-01 3.000000e-01 0.000000e+00
1.000000e-01 4.000000e-01 0.000000e+00
2.000000e-01 -4.000000e-01 0.000000e+00
2.000000e-01 -3.000000e-01 0.000000e+00
2.000000e-01 -2.000000e-01 0.000000e+00
2.000000e-01 -1.000000e-01 0.000000e+00
2.000000e-01 0.000000e+00 0.000000e+00
2.000000e-01 1.000000e-01 0.000000e+00
2.000000e-01 2.000000e-01 0.000000e+00
2.000000e-01 3.000000e-01 0.000000e+00
2.000000e-01 4.000000e-01 0.000000e+00
3.000000e-01 -4.000000e-01 0.000000e+00
3.000000e-01 -3.000000e-01 0.000000e+00
3.000000e-01 -2.000000e-01 0.000000e+00
3.000000e-01 -1.000000e-01 0.000000e+00
3.000000e-01 0.000000e+00 0.000000e+00
3.000000e-01 1.000000e-01 0.000000e+00
3.000000e-01 2.000000e-01 0.000000e+00
3.000000e-01 3.000000e-01 0.000000e+00
3.000000e-01 4.000000e-01 0.000000e+00
4.000000e-01 -4.000000e-01 0.000000e+00
4.000000e-01 -3.000000e-01 0.000000e+00
4.000000e-01 -2.000000e-01 0.000000e+00
4.000000e-01 -1.000000e-01 0.000000e+00
4.000000e-01 0.000000e+00 0.000000e+00
4.000000e-01 1.000000e-01 0.000000e+00
4.000000e-01 2.000000e-01 0.000000e+00
4.000000e-01 3.000000e-01 0.000000e+00
4.000000e-01 4.000000e-01 0.000000e+00

CELLS 100 500
4 0 2 40 39 
4 2 3 49 40 
4 3 4 58 49 
4 4 5 67 58 
4 5 6 76 67 
4 6 7 85 76 
4 7 8 94 85 
4 8 9 103 94 
4 9 10 112 103 
4 10 1 12 112 
4 39 40 41 38 
4 40 49 50 41 
4 49 58 59 50 
4 58 67 68 59 
4 67 76 77 68 
4 76 85 86 77 
4 85 94 95 86 
4 94 103 104 95 
4 103 112 113 104 
4 112 12 13 113 
4 38 41 42 37 
4 41 50 51 42 
4 50 59 60 51 
4 59 68 69 60 
4 68 77 78 69 
4 77 86 87 78 
4 86 95 96 87 
4 95 104 105 96 
4 104 113 114 105 
4 113 13 14 114 
4 37 42 43 36 
4 42 51 52 43 
4 51 60 61 52 
4 60 69 70 61 
4 69 78 79 70 
4 78 87 88 79 
4 87 96 97 88 
4 96 105 106 97 
4 105 114 115 106 
4 114 14 15 115 
4 36 43 44 35 
4 43 52 53 44 
4 52 61 62 53 
4 61 70 71 62 
4 70 79 80 71 
4 79 88 89 80 
4 88 97 98 89 
4 97 106 107 98 
4 106 115 116 107 
4 115 15 16 116 
4 35 44 45 34 
4 44 53 54 45 
4 53 62 63 54 
4 62 71 72 63 
4 71 80 81 72 
4 80 89 90 81 
4 89 98 99 90 
4 98 107 108 99 
4 107 116 117 108 
4 116 16 17 117 
4 34 45 46 33 
4 45 54 55 46 
4 54 63 64 55 
4 63 72 73 64 
4 72 81 82 73 
4 81 90 91 82 
4 90 99 100 91 
4 99 108 109 100 
4 108 117 118 109 
4 117 17 18 118 
4 33 46 47 32 
4 46 55 56 47 
4 55 64 65 56 
4 64 73 74 65 
4 73 82 83 74 
4 82 91 92 83 
4 91 100 101 92 
4 100 109 110 101 
4 109 118 119 110 
4 118 18 19 119 
4 32 47 48 31 
4 47 56 57 48 
4 56 65 66 57 
4 65 74 75 66 
4 74 83 84 75 
4 83 92 93 84 
4 92 101 102 93 
4 101 110 111 102 
4 110 119 120 111 
4 119 19 20 120 
4 31 48 30 21 
4 48 57 29 30 
4 57 66 28 29 
4 66 75 27 28 
4 75 84 26 27 
4 84 93 25 26 
4 93 102 24 25 
4 102 111 23 24 
4 111 120 22 23 
4 120 20 11 22 

CELL_TYPES 100
9
9
9
9
9
9
9
9
9
9
9
9
9
9
9
9
9
9
9
9
9
9
9
9
9
9
9
9
9
9
9
9
9
9
9
9
9
9
9
9
9
9
9
9
9
9
9
9
9
9
9
9
9
9
9
9
9
9
9
9
9
9
9
9
9
9
9
9
9
9
9
9
9
9
9
9
9
9
9
9
9
9
9
9
9
9
9
9
9
9
9
9
9
9
9
9
9
9
9
9

POINT_DATA 121

SCALARS node_groups int 1
LOOKUP_TABLE default
0
0
0
0
0
0
0
0
0
0
0
0
0
0
0
0
0
0
0
0
0
0
0
0
0
0
0
0
0
0
0
0
0
0
0
0
0
0
0
0
0
0
0
0
0
0
0
0
0
0
0
0
0
0
0
0
0
0
0
0
0
0
0
0
0
0
0
0
0
0
0
0
0
0
0
0
0
0
0
0
0
0
0
0
0
0
0
0
0
0
0
0
0
0
0
0
0
0
0
0
0
0
0
0
0
0
0
0
0
0
0
0
0
0
0
0
0
0
0
0
0

SCALARS u1 float 1
LOOKUP_TABLE default
0.000000e+00
0.000000e+00
0.000000e+00
0.000000e+00
0.000000e+00
0.000000e+00
0.000000e+00
0.000000e+00
0.000000e+00
0.000000e+00
0.000000e+00
-1.500000e-01
-1.500000e-01
-1.500000e-01
-1.500000e-01
-1.500000e-01
-1.500000e-01
-1.500000e-01
-1.500000e-01
-1.500000e-01
-1.500000e-01
-1.500000e-01
-1.500000e-01
-1.500000e-01
-1.500000e-01
-1.500000e-01
-1.500000e-01
-1.500000e-01
-1.500000e-01
-1.500000e-01
-1.500000e-01
-1.500000e-01
-1.500000e-01
-1.500000e-01
-1.500000e-01
1.500000e-01
1.500000e-01
1.500000e-01
1.500000e-01
1.500000e-01
6.157225e-02
9.865054e-02
1.095914e-01
1.139150e-01
1.150908e-01
-1.500000e-01
-1.500000e-01
-1.500000e-01
-1.500000e-01
3.424683e-02
5.968063e-02
7.411317e-02
8.037202e-02
8.215265e-02
-1.500000e-01
-1.500000e-01
-1.500000e-01
-1.500000e-01
1.921803e-02
3.485317e-02
4.519964e-02
5.064291e-02
5.227052e-02
-1.500000e-01
-1.500000e-01
-1.500000e-01
-1.500000e-01
8.781650e-03
1.618199e-02
2.140344e-02
2.434981e-02
2.528199e-02
-1.500000e-01
-1.500000e-01
-1.500000e-01
-1.500000e-01
-2.022037e-17
-3.859760e-17
-5.247539e-17
-6.245005e-17
-6.591949e-17
-1.500000e-01
-1.500000e-01
-1.500000e-01
-1.500000e-01
-8.781650e-03
-1.618199e-02
-2.140344e-02
-2.434981e-02
-2.528199e-02
-1.500000e-01
-1.500000e-01
-1.500000e-01
-1.500000e-01
-1.921803e-02
-3.485317e-02
-4.519964e-02
-5.064291e-02
-5.227052e-02
-1.500000e-01
-1.500000e-01
-1.500000e-01
-1.500000e-01
-3.424683e-02
-5.968063e-02
-7.411317e-02
-8.037202e-02
-8.215265e-02
-1.500000e-01
-1.500000e-01
-1.500000e-01
-1.500000e-01
-6.157225e-02
-9.865054e-02
-1.095914e-01
-1.139150e-01
-1.150908e-01
-1.500000e-01
-1.500000e-01
-1.500000e-01
-1.500000e-01

SCALARS u2 float 1
LOOKUP_TABLE default
1.000000e+00
1.000000e+00
1.000000e+00
1.000000e+00
1.000000e+00
1.000000e+00
1.000000e+00
1.000000e+00
1.000000e+00
1.000000e+00
1.000000e+00
1.000000e+00
1.000000e+00
1.000000e+00
1.000000e+00
1.000000e+00
1.000000e+00
1.000000e+00
1.000000e+00
1.000000e+00
1.000000e+00
1.000000e+00
1.000000e+00
1.000000e+00
1.000000e+00
1.000000e+00
1.000000e+00
1.000000e+00
1.000000e+00
1.000000e+00
1.000000e+00
1.000000e+00
1.000000e+00
1.000000e+00
1.000000e+00
1.000000e+00
1.000000e+00
1.000000e+00
1.000000e+00
1.000000e+00
1.000000e+00
1.000000e+00
1.000000e+00
1.000000e+00
1.000000e+00
1.000000e+00
1.000000e+00
1.000000e+00
1.000000e+00
1.000000e+00
1.000000e+00
1.000000e+00
1.000000e+00
1.000000e+00
1.000000e+00
1.000000e+00
1.000000e+00
1.000000e+00
1.000000e+00
1.000000e+00
1.000000e+00
1.000000e+00
1.000000e+00
1.000000e+00
1.000000e+00
1.000000e+00
1.000000e+00
1.000000e+00
1.000000e+00
1.000000e+00
1.000000e+00
1.000000e+00
1.000000e+00
1.000000e+00
1.000000e+00
1.000000e+00
1.000000e+00
1.000000e+00
1.000000e+00
1.000000e+00
1.000000e+00
1.000000e+00
1.000000e+00
1.000000e+00
1.000000e+00
1.000000e+00
1.000000e+00
1.000000e+00
1.000000e+00
1.000000e+00
1.000000e+00
1.000000e+00
1.000000e+00
1.000000e+00
1.000000e+00
1.000000e+00
1.000000e+00
1.000000e+00
1.000000e+00
1.000000e+00
1.000000e+00
1.000000e+00
1.000000e+00
1.000000e+00
1.000000e+00
1.000000e+00
1.000000e+00
1.000000e+00
1.000000e+00
1.000000e+00
1.000000e+00
1.000000e+00
1.000000e+00
1.000000e+00
1.000000e+00
1.000000e+00
1.000000e+00
1.000000e+00
1.000000e+00
1.000000e+00
1.000000e+00

CELL_DATA 100
SCALARS mat_id int 1
LOOKUP_TABLE default
1
1
1
1
1
1
1
1
1
1
1
1
1
1
1
1
1
1
1
1
1
1
1
1
1
1
1
1
1
1
1
1
1
1
1
1
1
1
1
1
1
1
1
1
1
1
1
1
1
1
2
2
2
2
2
2
2
2
2
2
2
2
2
2
2
2
2
2
2
2
2
2
2
2
2
2
2
2
2
2
2
2
2
2
2
2
2
2
2
2
2
2
2
2
2
2
2
2
2
2
