<?xml version="1.0"?>
<VTKFile type="UnstructuredGrid"  version="0.1"  >
<UnstructuredGrid>
<Piece  NumberOfPoints="720" NumberOfCells="1174">
<Points>
<DataArray  type="Float64"  NumberOfComponents="3"  format="ascii">0.0003 0.00034375 0  0.0002907138781601123 0.0003585613945093048 0  0.0003072060546875 0.0003585845947265625 0  0.00035 0.00159375 0  0.000325 0.00159746337890625 0  0.0003294420601760495 0.00157737715829579 0  0.0002826171875 0.0010659375 0  0.0002698330791264167 0.00108146376695291 0  0.0002863526209563144 0.001084080810546875 0  0.0003 0.00021875 0  0.0002976119770902152 0.0002392525400747701 0  0.0002844180126772399 0.0002273254378784137 0  0.0002826171875 0.0018159375 0  0.0002653073056650435 0.001823719608533394 0  0.0002679362874443231 0.001806424906633554 0  0.0002826171875 0.0013159375 0  0.0002656663781811377 0.0013203125 0  0.0002875019620943546 0.001330734837796838 0  0.0003 0.00159375 0  0.0003116880104938564 0.001580109526209505 0  0.0002826171875 0.0008159375000000001 0  0.0002698330791264166 0.00083146376695291 0  0.0002863526209563143 0.0008340808105468751 0  0.000325 0.0005974633789062501 0  0.0003145509811575214 0.0005817986374787539 0  0.0003109168109094311 0.0006062653720878557 0  0.0003 0.0008437500000000001 0  0.0003138964568263948 0.0008340808105468751 0  0.0003109168109094311 0.0008562653720878557 0  0.00025 0.0015625 0  0.00025 0.001546875 0  0.0002653499073351894 0.0015546875 0  0.000325 0.00047246337890625 0  0.0003145509811575213 0.0004567986374787539 0  0.0003109168109094311 0.0004812653720878556 0  0.000315234375 0.0006875 0  0.0003140739440917969 0.0007062726688385009 0  0.0002970551071166992 0.000701252179145813 0  0.000284765625 0.0009375 0  0.0002673828125 0.000921875 0  0.0002859260559082032 0.000918727331161499 0  0.0002826171875 0.0015659375 0  0.0002698330791264167 0.00158146376695291 0  0.0002869752241074662 0.001582552106026584 0  0.000284765625 0.0003750000000000001 0  0.0002673828125 0.0003680157823768411 0  0.0002681271643224308 0.001046962995136594 0  0.0002841689368413253 0.001039320202999872 0  0.00025 0.001875 0  0.0002673828125 0.001884284568662856 0  0.00025 0.001890625 0  0.0002875 0.001977701822916667 0  0.0002669356230161391 0.001980826501587089 0  0.0002812483959344137 0.001962619078374669 0  0.0003 0.00171875 0  0.000325 0.00172590087890625 0  0.0003121018453955213 0.001703115310157384 0  0.000275 0.00160090087890625 0  0.0002907138781601125 0.001608561394509305 0  0.0002673828125 0.001618015782376841 0  0.000275 0.001540421087591498 0  0.0002976119770902153 0.00155175254007477 0  0.0003 0.00140625 0  0.0002849813552548168 0.001396298274059489 0  0.0002907138781601123 0.001421061394509305 0  0.00035 0.001453125 0  0.0003326869152320359 0.0014453125 0  0.0003360584841791548 0.001460930646717933 0  0.0002847656249999999 0.00125 0  0.000285926055908203 0.001231227331161499 0  0.0003029448928833007 0.001236247820854187 0  0.0003 0.00121875 0  0.000325 0.00122246337890625 0  0.0003148905108677223 0.00120451278328253 0  0.0002976119770902153 0.00105175254007477 0  0.0003 0.00107441162109375 0  0.0003173828125 0.0001840625 0  0.0003023880229097847 0.00019824745992523 0  0.0003072060546875 0.0001710845947265625 0  0.0003152343750000001 0.00175 0  0.000314073944091797 0.001768772668838501 0  0.0002970551071166994 0.001763752179145813 0  0.000284765625 0.0001875 0  0.0002907138781601123 0.0001710613945093047 0  0.0002673828125 0.0001805157823768409 0  0.00035 0.000125 0  0.0003326171875 0.0001389903131525874 0  0.00035 0.000140625 0  0.0003 0.00115625 0  0.000275 0.00114909912109375 0  0.0002905323170639356 0.001141365031953596 0  0.000284765625 0.0015 0  0.0002863274015016424 0.001481422987138301 0  0.0003033020904614617 0.001486024572367836 0  0.000275 0.00121159912109375 0  0.0002673828124999999 0.001234375 0  0.000284765625 0.001125 0  0.0002907138781601125 0.001108561394509305 0  0.0003072060546875001 0.001108584594726563 0  0.0003 0.00046875 0  0.0002975551547316681 0.0004509396493864574 0  0.0002976119770902152 0.0008017525400747701 0  0.0003 0.0008244116210937502 0  0.00035 0.0008437500000000001 0  0.000325 0.0008474633789062501 0  0.0003294420601760495 0.0008273771582957899 0  0.0003 0.00078125 0  0.000275 0.0007775366210937501 0  0.0002859244009806106 0.0007900008936885896 0  0.0003 0.0009062499999999999 0  0.000275 0.00089909912109375 0  0.000325 0.00097246337890625 0  0.0003148905108677222 0.0009545127832825297 0  0.0003360584841791547 0.000960930646717933 0  0.0003 0.00096875 0  0.0002859260559082032 0.0009812273311614991 0  0.0003029448928833009 0.0009862478208541869 0  0.0002826171875 0.0005659375000000001 0  0.000275 0.0005404210875914979 0  0.0002976119770902152 0.0005517525400747701 0  0.0003326171875 0.0005764903131525874 0  0.000325 0.0006634008789062499 0  0.00035 0.0006718749999999999 0  0.0003326171875 0.000685643310546875 0  0.0002826171875 0.0006909375 0  0.0002681271643224308 0.0006719629951365941 0  0.0002841689368413253 0.0006643202029998723 0  0.0003 0.00071875 0  0.000325 0.00072590087890625 0  0.0003158310631586747 0.0002106797970001277 0  0.0002826171875 0.0002534375000000001 0  0.0002672010160297231 0.0002683903407353495 0  0.0002849813552548167 0.0002712982740594896 0  0.000325 0.00034746337890625 0  0.0003148905108677222 0.0003295127832825297 0  0.0003360584841791548 0.000335930646717933 0  0.00025 0.0003125 0  0.00025 0.000296875 0  0.0002673828125 0.000305515782376841 0  0.0003 0.00040625 0  0.000275 0.0004154210875914978 0  0.0002923766022642216 0.0004241289569694016 0  0.0003326171875 0.0004514903131525873 0  0.00025 0.0004375 0  0.0002653073056650434 0.0004487196085333947 0  0.00025 0.000453125 0  0.000315234375 0.000125 0  0.0003145509811575214 0.0001442986374787539 0  0.0002975551547316681 0.0001384396493864574 0  0.0003 0.00015625 0  0.000325 0.00015996337890625 0  0.0003318728356775692 0.0002030370048634059 0  0.00025 0.0011875 0  0.0002673828125 0.001189356689453125 0  0.00025 0.001203125 0  0.0002859260559082032 0.001168727331161499 0  0.000325 0.00128840087890625 0  0.00035 0.001296875 0  0.0003326171875 0.001310643310546875 0  0.0002681271643224308 0.001296962995136594 0  0.0002841689368413253 0.001289320202999872 0  0.0003 0.00134375 0  0.000325 0.00135090087890625 0  0.0003140739440917969 0.001331272668838501 0  0.0003013455466894294 0.001690210226985096 0  0.0003318728356775692 0.001703037004863406 0  0.0003 0.00165625 0  0.000275 0.00164909912109375 0  0.0002863274015016424 0.001668922987138301 0  0.0002923766022642216 0.001799128956969401 0  0.0003 0.00182441162109375 0  0.00035 0.0018125 0  0.0003326171875 0.001805515782376841 0  0.00035 0.001796875 0  0.00025 0.0018125 0  0.00025 0.001828125 0  0.000275 0.00102409912109375 0  0.0002875985493714832 0.001015176188799933 0  0.00025 6.25e-05 0  0.000275 7.8125e-05 0  0.00025 7.8125e-05 0  0.0003185641686893204 0.001932172330097087 0  0.0003341035821962269 0.001953125 0  0.0003140845353545058 0.001951293478693271 0  0.0003 0.00190625 0  0.000278515625 0.0019275 0  0.000275 0.001902459932215073 0  0.0003 0.0006562499999999999 0  0.0003121018453955213 0.0006406153101573841 0  0.0002998245331095945 0.001385246679576834 0  0.0002907138781601123 0.0006414386054906952 0  0.0002921894040431374 0.0008907192866227205 0  0.00025 0.001125 0  0.00025 0.001109375 0  0.0002712373668201983 0.001116453811220849 0  0.00035 0.001234375 0  0.0003343336218188622 0.0012421875 0  0.0003 0.00184375 0  0.000275 0.00184003662109375 0  0.0002854490188424786 0.001855701362521246 0  0.0002989131523058252 0.001926636832524272 0  0.0003120950904031401 0.001917489255145915 0  0.0003 0.00053125 0  0.000275 0.00046503662109375 0  0.0002883119895061434 0.000482390473790495 0  0.000275 0.00096159912109375 0  0.00025 0.001015625 0  0.0002673828125 0.001006984217623159 0  0.00025 0.00071875 0  0.0002679234211177331 0.0007363962403175326 0  0.00025 0.000734375 0  0.000325 0.0007884008789062501 0  0.0003140739440917969 0.000768772668838501 0  0.000275 0.0007150366210937501 0  0.00035 0.00078125 0  0.0003326171875 0.000765625 0  0.000275 0.00134003662109375 0  0.0002826171875 0.0013784375 0  0.0002672010160297232 0.001393390340735349 0  0.0002996360244750977 0.001320957989692688 0  0.00035 0.001375 0  0.00035 0.001359375 0  0.0003326171875 0.001368015782376841 0  0.0003173828125 0.0009965625000000001 0  0.0003318728356775692 0.001015537004863406 0  0.0003155819873227601 0.001022674562121586 0  0.0003 0.00103125 0  0.0003 0.00109375 0  0.0002673828125 0.001131984217623159 0  0.00025 0.001140625 0  0.0003 0.00146875 0  0.000275 0.00146159912109375 0  0.00025 0.00153125 0  0.0003173828125 0.0014965625 0  0.0003318728356775692 0.001515537004863406 0  0.0003155819873227601 0.001522674562121586 0  0.0003 0.00153125 0  0.000325 0.00165996337890625 0  0.0003148905108677223 0.00164201278328253 0  0.0003360584841791547 0.001648430646717933 0  0.00025 0.001625 0  0.00025 0.001609375 0  0.00035 0.001125 0  0.0003346926943349565 0.001113780391466606 0  0.00035 0.001109375 0  0.0003173828125 0.0011215625 0  0.0003320637125556769 0.001131075093366446 0  0.000325 0.001907954845243287 0  0.0003135740097092481 0.001891353050156943 0  0.0003363920072845795 0.001897691534552007 0  0.0002826171875 0.0001284375000000001 0  0.0002764356170107996 0.0001036405127827206 0  0.0002939845956147748 0.0001124347644480009 0  0.0003 9.375e-05 0  0.0002836179570128143 0.0001485170111919154 0  0.000284036558879963 0.0003352169938849523 0  0.0002826171875 0.0004409375 0  0.000325 0.00053840087890625 0  0.0003318728356775692 0.000515537004863406 0  0.0003121018453955212 0.000515615310157384 0  0.00025 0.00046875 0  0.0002705579398239504 0.0004851228417042102 0  0.0003173828125 0.0003715625 0  0.0003318728356775692 0.0003905370048634059 0  0.0003155819873227601 0.0003976745621215863 0  0.0002814358313106796 2.592233009708738e-05 0  0.0003024517616524778 2.607618320144272e-05 0  0.0002920323542724939 1.3902494787391e-05 0  0.000
[...]
<PointData  Scalars="f_95_1"> 
<DataArray  type="Float64"  Name="f_95_1"  format="ascii">4.2838574973342918e-06  2.8933838634522132e-03  -2.2375710946649463e-03  -1.5544941095993683e-02  -7.7670927378276581e-03  -9.1491612041845281e-03  5.4160671661980294e-03  9.3934690838414943e-03  4.2540177805942972e-03  3.9412602266524324e-06  7.4692730299130955e-04  4.8517330103530444e-03  5.4193568854178070e-03  1.0804688262391978e-02  9.9867420579992441e-03  5.4175061457924847e-03  1.0691162981112123e-02  3.8978537376375706e-03  1.0742920661113769e-05  -3.6256172376904526e-03  5.4145540458412009e-03  9.3919617569672344e-03  4.2525148322260006e-03  -7.7725243472688945e-03  -4.5217718594465911e-03  -3.3910054216929222e-03  6.6719505372076953e-06  -4.3167748437775528e-03  -3.3896388524724489e-03  1.5566305677924585e-02  1.5566253776110428e-02  1.0790723898618258e-02  -7.7731255674489460e-03  -4.5223482135480584e-03  -3.3916113439422611e-03  -4.7338592948609854e-03  -4.3727374803219938e-03  9.2203437855743850e-04  4.7468570189980793e-03  1.0154794003088696e-02  4.3857133050242249e-03  5.4186728541637920e-03  9.3960434842626141e-03  4.0628887668516748e-03  4.7440276973797499e-03  1.0152040089656793e-02  9.9240138528497723e-03  4.9331469190591806e-03  1.5567071398666541e-02  1.0159089266109712e-02  1.5567097003668488e-02  3.9004256813371858e-03  1.0298231487835721e-02  5.8453747165079966e-03  1.1168430532804588e-05  -7.7666397087228604e-03  -3.7539081005459663e-03  7.7886222102610042e-03  2.8998454977392507e-03  1.0158502888500809e-02  7.7883976317337927e-03  7.5352728250671337e-04  9.9430764417517300e-06  4.6824146099163719e-03  2.8990768657423463e-03  -1.5545516604640177e-02  -1.0159230474112806e-02  -1.1208096265964796e-02  4.7487644868079255e-03  4.3876295670465743e-03  -9.0714683659100465e-04  8.9475561543800642e-06  -7.7688877452788728e-03  -4.6237959912660484e-03  7.5089081314586774e-04  8.0645029073010534e-06  -5.4041497832803872e-03  -7.3903920054974764e-04  -2.2380377202528951e-03  -4.7283787742910506e-03  -4.3673185190271887e-03  9.2744344128957359e-04  4.7435210929496563e-03  2.8929107470957970e-03  1.0151538191202694e-02  -1.5551864847900849e-02  -1.0143831465153319e-02  -1.5551840606561429e-02  8.5430212345466216e-06  7.7863575657282818e-03  2.9539847795685662e-03  4.7500332836141234e-03  4.2640676166793203e-03  -1.0169942253980603e-03  7.7867579420906885e-03  1.0156711262321773e-02  4.7479887704027198e-03  2.8973050343891805e-03  -2.2336529163511048e-03  4.7145244023233029e-06  7.6527509139127567e-04  7.4937014583320398e-04  6.5590290659137123e-06  -1.5549018734291251e-02  -7.7711690745065603e-03  -9.1532707546888494e-03  6.2982357460319721e-06  7.7841311341878315e-03  4.3854718703458468e-03  7.0282201965349469e-06  7.7848471662383279e-03  -7.7704232483467930e-03  -4.6253311758515459e-03  -1.1210948666478520e-02  7.4182274224996708e-06  4.3861110475717363e-03  -9.0866626075890159e-04  5.4131980501381655e-03  7.7828819965123667e-03  7.4803656119880476e-04  -1.0142445942292147e-02  -7.7721930303279903e-03  -1.5549977598199934e-02  -1.0141898387278378e-02  5.4138192092713184e-03  9.9217654249939991e-03  4.9309171693979730e-03  5.9309831044375054e-06  -7.7718744949530592e-03  -4.9213394938835038e-03  5.4120514260452305e-03  1.0208271598270655e-02  4.6765696755436204e-03  -7.7735631922967235e-03  -4.6284220078241390e-03  -1.1214055548219616e-02  1.5559867819411575e-02  1.5559815008410959e-02  1.0151823669721389e-02  4.4955195044771650e-06  7.7823830355619912e-03  2.3763028825250772e-03  -1.0143020584021046e-02  1.5560296076813482e-02  1.0798028017271645e-02  1.5560346396106886e-02  -4.7358242228394496e-03  -4.5231850940408973e-03  7.6444614426076632e-04  3.8451150231563350e-06  -7.7739949207688095e-03  -9.9121663290904528e-03  1.5564438435867162e-02  1.0156430129340222e-02  1.5564535670801884e-02  4.3872310274336935e-03  -7.7685259807386241e-03  -1.5546323750973576e-02  -1.0138241598826446e-02  9.9254645434832880e-03  4.9346065418527279e-03  9.5958222651800532e-06  -7.7682351186513041e-03  -4.3690768835789344e-03  -4.0751301134362474e-04  -9.9049213691029103e-03  1.0994671962917441e-05  7.7888110714764642e-03  4.2647701830672942e-03  2.3830500066077225e-03  1.1374996500517028e-05  -1.5544254290344209e-02  -1.0136271213400118e-02  -1.5544296695182066e-02  1.5566950307781475e-02  1.5566984393939116e-02  7.7856430848089412e-03  3.8659983974176702e-03  1.5559395887591330e-02  7.7815855969678525e-03  1.5559399601281056e-02  -5.7639862128718517e-03  -1.0598472940977816e-02  -4.3703210995829729e-03  1.1525131107992429e-05  6.6955710018236003e-03  7.7893106662932634e-03  5.6161507378154886e-06  -3.7595125585661339e-03  6.4414799105356820e-05  2.8945837360788715e-03  2.4369264638288909e-03  1.5564041382345427e-02  1.5563949914832885e-02  8.9567707034566481e-03  -1.5546642459131111e-02  -1.0672586338746379e-02  1.1420034192250367e-05  7.7892093537934902e-03  4.5384282296766819e-03  3.4966582521820300e-04  -3.7513875060064465e-03  4.9862677906641927e-06  7.7825544660431864e-03  3.6410733336159963e-03  7.7852350588103721e-03  1.5563427098245744e-02  1.0155350296527872e-02  1.5561603477076615e-02  9.9855000593164905e-03  1.5561692704131793e-02  -7.7715131121606270e-03  -4.3723808596652239e-03  7.7837590951385024e-03  -1.5549379528445841e-02  -1.0141459915072757e-02  7.7874417861386715e-03  5.4178401227152114e-03  1.0214115215044372e-02  1.2272121075905775e-04  -1.5545945006894988e-02  -1.5546028573375580e-02  -1.0137961650736840e-02  -5.4004450241519038e-03  -9.9083697301042550e-03  -4.8400119705740811e-03  7.8238392322088135e-06  8.1720014173040580e-06  1.0156065802538040e-02  1.5564132834327019e-02  1.0260087929359584e-05  7.7880990792846211e-03  1.5566200508690427e-02  -5.3976725536596390e-03  -9.9056467495657920e-03  -4.8373091332417784e-03  1.0504077928104328e-05  -7.7668336661878105e-03  -4.6217029628320026e-03  -1.1207324568175414e-02  1.5566550916519612e-02  1.5566488999632510e-02  -1.5547354486969594e-02  -1.0785112351539162e-02  -1.5547440720137811e-02  -5.3997157885641326e-03  -9.9670965349780705e-03  -7.7662571070009675e-03  -4.2115182313334637e-03  -1.1310450530231306e-02  5.4118408898588778e-03  7.3349763630600152e-03  1.8752625057441008e-03  3.7633270219167778e-06  5.1005166969649782e-03  4.9707089437557297e-03  5.4126537521751910e-03  -7.7728272886274851e-03  -9.9111728340321899e-03  -3.7601428461677372e-03  1.5560401523257734e-02  9.1646192109060155e-03  -5.4036599053993249e-03  -9.9116423792336445e-03  -4.8433105474327796e-03  5.7792965193728067e-03  -7.5906740142870363e-04  2.4825634343996999e-03  -1.5551683439710062e-02  -1.0143677785152440e-02  -1.5551710200052306e-02  9.9200544316510961e-03  5.8616189744578206e-05  7.4866219581974061e-04  5.3018848161150626e-06  7.7831320921937239e-03  3.6416726855735913e-03  -9.9105364051723585e-03  -1.5548668412887939e-02  -1.5548760220634889e-02  -8.9962686635252451e-03  2.8958032792216191e-03  7.7890065766417745e-03  2.3829375540242344e-03  1.0245643485690027e-02  1.1283472809497922e-05  -7.7665095333889125e-03  -1.5546391110669610e-02  -9.9068734556980662e-03  -1.5546466667659083e-02  1.5564633918846504e-02  1.5566852201658413e-02  1.5566834096142628e-02  -1.5544335887532228e-02  -1.0136361570433744e-02  4.7438094353852477e-03  2.8931710007502657e-03  -4.7350319481124521e-03  1.5565647967218715e-02  1.5565557631804387e-02  -4.6224687963049441e-03  9.0958017707073145e-04  -7.3525269794058948e-04  -1.5551974150519940e-02  -7.2930245321524891e-03  -1.5551994146120168e-02  1.7129283728725974e-03  -1.2430183619607331e-03  -1.6976842320132444e-03  7.6424268841852720e-04  2.8006709555796730e-03  -7.7662577460059102e-03  -1.5544036110728758e-02  -1.0927592605669076e-02  9.2943640428912736e-06  -7.3375963525369270e-04  -4.8385277391348102e-03  1.5565216725714497e-02  -5.3989310632657122e-03  -1.0160566413571204e-02  -1.1209404835725498e-02  1.0014921864070502e-02  1.5563113066493588e-02  1.5563010075384102e-02  7.7845738620808506e-03  1.0618394258404010e-02  -4.7344841590319930e-03  7.6583733638340844e-04  1.5566424967224253e-02  -1.5548175330357872e-02  -1.0674109949537805e-02  2.5379784355995874e-03  8.0188764986170464e-03  -6.1109566930429094e-03  -1.7156147033529346e-03  1.0638635502915637e-02  -2.2310992369856467e-03  -1.0782556873518459e-02  -1.5544878872854159e-02  -1.5549286641876622e-02  1.5566817046830465e-02  1.0158776493973478e-02  1.5566795392756261e-02  -1.5551801248350023e-02  -1.0677782978850267e-02  4.7472635952457336e-03  7.7893111837569065e-03  -7.3851876417297443e-04  -1.5551294738486186e-02  -1.5551238816378099e-02  -1.5550051335945369e-02  -3.8525698369459996e-03  -1.5549572756890005e-02  -1.5549479351468790e-02  1.0156315028721070e-02  1.5564334432568034e-02  4.7483810634901631e-03  -2.3633182066289233e-03  -4.4952169152099770e-03  -1.5546105735499919e-02  -1.0138160385307860e-02  7.5265483008866941e-04  4.3887694119569172e-03  1.5565295692331827e-02  4.7507148963895829e-03  -5.3969388190222168e-03  -1.0670575111961917e-02  -1.5549740577765371e-02  -1.0141810012502367e-02  7.4899713493621384e-04  4.3850965245174605e-03  1.0799198748528397e-02  -4.7335177380608230e-03  9.2239244617049201e-04  1.5567112670578476e-02  9.1868951682304838e-03  1.5567110976770467e-02  -1.5544168194221974e-02  -7.7663642562789013e-03  -1.0781835317363993e-02  -9.1483947405100480e-03  1.0159048961914540e-02  7.7860743262821702e-03  -1.5547520081377287e-02  -7.7696696089029687e-03  -9.1517663658367675e-03  -1.5547606731486332e-02  -1.0162703659569578e-03  1.5566668818657061e-02  -5.3971771972986058e-03  -1.5545070226757399e-02  -1.0137076338050222e-02  -1.5545128921718741e-02  -7.7673291494601256e-03  -3.8477081983181527e-03  1.5566361454714768e-02  1.0158128161500479e-02  1.0014237533046465e-02  -1.5545444781413006e-02  -7.7675954373394611e-03  -1.0783054798883153e-02  7.7878548722461246e-03  1.0157763685006909e-02  -1.5547869049967581e-02  -7.7699967209932958e-03  -1.5547782292360843e-02  -3.8503562716993866e-03  1.5563863245626452e-02  1.5563519389659762e-02  1.0155199432416592e-02  9.0670794791279435e-04  -1.5548279668589545e-02  -1.0141223047974723e-02  -3.8518754450709075e-03  1.0154937471648064e-02  -7.7708140822138417e-03  -1.0786252087350923e-02  -2.9539959303864541e-03  -3.8485977541677782e-03  1.5565738435486405e-02  1.5565823392509122e-02  -1.5550542582289422e-02  -1.0142538353583084e-02  -1.5550618989074312e-02  -3.8531986959003282e-03  1.5560983728716858e-02  1.0798582738645519e-02  9.1652168639709940e-03  1.5561060454864059e-02  -1.0141562292672967e-02  -1.5549656245462793e-02  -3.8522420461430517e-03  1.5561983259603066e-02  1.0799561789688363e-02  9.9858854071175601e-03  -1.5544211612843287e-02  1.5567014406619834e-02  -7.7738981209641792e-03  -3.8542984433396444e-03  4.0813567661310839e-06  1.5559764360306517e-02  7.7819576399670498e-03  1.5559973282549594e-02  1.0151897834735748e-02  1.5559918574767021e-02  7.7817028096985640e-03  1.5559536535401947e-02  1.5559510564767566e-02  -1.5551818856489652e-02  -2.2377841235947981e-03  -1.5551610407339145e-02  -7.7737665476087583e-03  -9.1558038491844611e-03  7.7821673398857120e-03  1.5560031250766933e-02  -1.0789255106726294e-02  -5.4038811417098584e-03  1.5560830105167258e-02  9.9805821286927561e-03  1.5560463740354264e-02  1.0680670442638956e-02  -5.4032120479739782e-03  -1.0676864343671086e-02  -7.7733352233978759e-03  -1.0143082316772085e-02  -1.5551141122808882e-02  1.0420591079325355e-02  -1.0677309538750806e-02  -1.5551188446805069e-02  1.5559415821314026e-02  -1.5551904762158762e-02  -7.7740731994905485e-03  -1.5551886117063608e-02  1.5559559524266402e-02  1.0208038778474440e-02  -6.6803454776685712e-03  -9.2056476305219931e-03  -1.5546257764111025e-02  -1.5546183693724904e-02  1.5562548090043064e-02  1.0154564170310324e-02  1.5562631691647677e-02  4.7464824639468868e-03  -5.4012208534659090e-03  -1.0674877949499315e-02  1.5561138197393990e-02  1.0153151184878263e-02  1.5561210487580007e-02  7.7834243289343222e-03  -1.5550372629999426e-02  -1.0787968272538364e-02  -1.5544467149426627e-02  -1.5544434796498717e-02  -2.9343196547922160e-03  1.5566894041535585e-02  7.7891053622264478e-03  1.5566918961429801e-02  1.5564826659609000e-02  1.0156840138373743e-02  1.5564909096632065e-02  7.7871156394952916e-03  3.8674824521399932e-03  -1.5546737440502263e-02  -1.0136407911624215e-02  1.5559646665713424e-02  1.0455671808881097e-02  1.5567108710812291e-02  1.5567110090713035e-02  1.0629390712497525e-02  1.1533912456822708e-05  -4.1850763446103561e-03  -1.0598141830218583e-02  -1.5544030448219297e-02  -1.5544040230385662e-02  -1.0925477089704351e-02  -7.7741684757245662e-03  -1.5544025673826361e-02  -7.0068576614180948e-03  1.5563704907209595e-02  1.5563614228402276e-02  1.5559398017175255e-02  1.0494504766936533e-02  1.5559467398527694e-02  1.5559441411205160e-02  1.0236987346531020e-02  3.3223777590746456e-03  5.2152721669633511e-03  1.5562716845570661e-02  1.5562271565572399e-02  1.0521755145619869e-02  4.4462648894944409e-03  -1.5551472488767572e-02  -1.0165168952930868e-02  -1.5551735026724247e-02  -1.5551760905267510e-02  -1.5550695387174787e-02  -1.5550773165855009e-02  -4.7301922821494273e-03  -1.5545596923146453e-02  -1.5545676482269970e-02  -9.3753643921194452e-03  -5.3979653899376570e-03  1.5563784044937457e-02  1.0529627451810838e-02  1.5564229686815466e-02  -1.5550130588265211e-02  -5.3965124604658981e-03  -7.4915901218453919e-04  -7.3251817449627283e-04  4.4522751962318193e-03  -1.5548390341070674e-02  -1.0162109191795747e-02  4.7504957386473555e-03  9.1032693246429906e-04  5.4192440984350745e-03  9.2559014304698824e-03  -1.5550980708571143e-02  -3.2187351294470997e-03  9.0823710623646559e-04  1.5564986167205612e-02  1.5565063656849464e-02  1.5559437702640747e-02  1.5559416133594611e-02  1.0146977951341993e-02  -1.5544062463734519e-02  -1.0157777171913658e-02  -5.3993211057862794e-03  -1.5546839752757972e-02  -1.5549110816266944e-02  -1.5551648151376236e-02  4.7497541183839607e-03  1.5565969301941457e-02  -1.5545184360040327e-02  -1.5545242822423750e-02  -1.5545005031117748e-02  -2.9341980480237059e-03  4.5150414683447892e-03  -5.4008515240173581e-03  -9.0906514591450468e-04  -1.5546944357088525e-02  -1.5547044415671375e-02  -9.2360779368249688e-03  -1.5544740789664254e-02  -1.0158450918830327e-02  9.9891833479636687e-03  4.7444699548088330e-03  1.0152576134956764e-02  5.2090864884705938e-03  5.4141720791701471e-03  1.5559607432057429e-02  7.7817778039881574e-03  1.5561282064548055e-02  -3.8488970088507738e-03  7.5234286975396029e-04  1.5561890274187076e-02  -1.5551956914239495e-02  1.5567098315053866e-02  1.5566148598968372e-02  -1.5550211307880183e-02  1.5563331427107833e-02  1.5563223502857678e-02  -1.5549906691328155e-02  1.5566761245098374e-02  9.7064266151570197e-03  1.5566096857315033e-02  9.7057593945461158e-03  1.5562909989198057e-02  1.5562810613308001e-02  1.5560188273268369e-02  1.0152114315724733e-02  1.5560085977685139e-02  1.5560136249960211e-02  1.5560671646495735e-02  1.5564734439732535e-02  -1.5544404380148837e-02  -1.5548073206947222e-02  -1.5551353269532759e-02  -1.5550847146301540e-02  -1.5550917139227610e-02  1.5559686157705565e-02  -1.5551783110987724e-02  1.5565140980461281e-02  -5.4025900251550357e-03  -1.5550290718131509e-02  -1.5544555628032619e-02  -1.5544612423858671e-02  1.5561437383107538e-02  1.5561521146486174e-02  -1.5546553488668121e-02  -1.5551940372070543e-02  -1.5545308109738752e-02  -1.5544023810029053e-02  -1.5544027763792555e-02  -1.5547696840133131e-02  -1.0139713597724972e-02  4.7510771429226297e-03  1.0614896297299541e-02  -1.5549201064444832e-02  -1.0143861135922087e-02  1.5560530809462991e-02  -1.5551093751484528e-02  1.5561791911495482e-02  1.5562180517701902e-02  -1.5548849658366157e-02  -1.5548932933017946e-02  1.5566873064061740e-02  -1.5545761055045342e-02  -7.7679714071167312e-03  -1.5547143347913985e-02  -7.7693743595799759e-03  1.5559487982836790e-02  1.5562359419580703e-02  3.7089003099797189e-06  1.5567094703514014e-02  1.5567091202954748e-02  1.5559403137671931e-02  -9.0754389867710649e-04  -1.2247810431006569e-04  -4.0422026164755147e-03  -2.6700095773403312e-04  6.3533858904687014e-04  -4.7331481831038406e-03  -4.7356299844640943e-03  -2.9409876555877611e-03  -4.7282496738857288e-03  -4.7316366926182562e-03  -4.7290123477437655e-03  -4.6510054504330880e-04  -4.7298793552802499e-03  3.8621815945000704e-03  4.7450845986352196e-03  -2.0822480512430307e-04  -2.7026505390147926e-04  -1.5544038933911566e-02  -4.3152732624739138e-03  -4.3968069760943768e-03  -4.3894290740718964e-03  -1.5548493146528754e-02  -1.5544811214248026e-02  -1.5544090355170707e-02  -1.5551527972647642e-02  -1.5552019892774221e-02  -1.5551412803715964e-02  -1.5544673329647268e-02  -4.9624093753328777e-04  -1.5551922414804603e-02  8.9593587126449124e-03  1.5566611790566776e-02  -1.5545852635537542e-02  -8.9386700406040714e-03  1.5565897669625276e-02  8.9586362821929156e-03  2.2204222984474896e-04  1.5559578804952814e-02  8.9523586597157184e-03  1.5562453007514526e-02  1.5560242590236320e-02  1.5560749369164911e-02  -1.5547248684547795e-02  7.7815838895531220e-03  1.5559720925825011e-02  1.5565469645213671e-02  -1.5545376383843644e-02  -1.5544125834052703e-02  1.5560908865166005e-02  1.5562080807310327e-02  -1.5550458740602451e-02  1.5565380957510488e-02  1.5561356845875925e-02  -1.5544505864734428e-02  -1.5547966434576460e-02  1.5560598783519917e-02  1.5566719276476033e-02  1.5566038659927240e-02  -1.5549827052451283e-02  -1.5548581564751295e-02  1.5567042476499529e-02  -1.5551040835359757e-02  -1.5551573489693398e-02  -1.5544372138038229e-02  </DataArray> 
</PointData> 
</Piece>
</UnstructuredGrid>
</VTKFile>