<?xml version="1.0"?>
<VTKFile type="UnstructuredGrid"  version="0.1"  >
<UnstructuredGrid>
<Piece  NumberOfPoints="1858" NumberOfCells="3408">
<Points>
<DataArray  type="Float64"  NumberOfComponents="3"  format="ascii">0.00035 0.0006562499999999999 0  0.000377304068355611 0.0006611732889091348 0  0.0003699253302773702 0.000638351479069198 0  0.0004715575651684644 0.001528958363139112 0  0.0004885978516708971 0.001516300240886939 0  0.000460701365096283 0.001517630785248436 0  0.0003785888247830635 0.0004233428771699157 0  0.000388991504790706 0.0004492206095308871 0  0.0004030590821908327 0.0004229810245705584 0  0.00035 0.0008437500000000001 0  0.00035 0.0008593750000000001 0  0.000364799154334038 0.0008515625000000001 0  0.00035 0.00109375 0  0.0003671875 0.001078125 0  0.00035 0.001078125 0  0.0004750000000000001 0.001125 0  0.0004617554233978565 0.00110959307211736 0  0.0004583133188379887 0.001124936295954491 0  0.0003968015487301244 0.0003567965272618972 0  0.0003715904551989817 0.0003612438912544597 0  0.0003817346221534239 0.00034506720771888 0  0.0004359375 0.0009609375000000001 0  0.000428125 0.0009765625000000002 0  0.0004205336630512609 0.0009537884891537826 0  0.0005062499999999996 0.00125 0  0.0005218750000000001 0.001265625 0  0.0005218750000000004 0.00125 0  0.0005002760519961888 0.001590973533902986 0  0.0005018362541300523 0.001618533708602557 0  0.0005144187986844053 0.001603997151874777 0  0.0004764411881566173 0.001710542190601953 0  0.0004835862679571495 0.001687351920292253 0  0.0004977313315915077 0.001705049142781328 0  0.0006136776567294035 0.0003746311989226502 0  0.0006252979726078841 0.0003609999090864569 0  0.0006300232912400891 0.0003816405256872817 0  0.0004102870915806489 0.00015625 0  0.0003946381338870861 0.0001461304611701242 0  0.0003946099313058376 0.0001669803110492808 0  0.0004449711366270748 0.001779886848884295 0  0.0004208593889153888 0.001794980688741487 0  0.0004159503025849145 0.001774420974384551 0  0.0004437500000000001 0.00125 0  0.0004437499999999998 0.001234375 0  0.0004281249999999996 0.00125 0  0.0003698437324007781 0.000484375 0  0.0003873353000197755 0.0004892254427107034 0  0.000373614018342243 0.00046875 0  0.0003879474870757102 0.0005073667480459961 0  0.0004048069060855461 0.0005057340690164013 0  0.0004411162964899988 0.000869444461170799 0  0.000461494463270502 0.0008864832551109235 0  0.00045953044188577 0.0008681267953817564 0  0.0003986778846153846 0.001019230769230769 0  0.0004180096871877527 0.001037729217960899 0  0.0004188332048873374 0.001017518027006633 0  0.0005036018753859733 0.001100558625144892 0  0.0005027418332725732 0.001128508166727427 0  0.0005193448146453674 0.001119064630582874 0  0.0003902000756782187 0.001560224848643563 0  0.0003709746916477865 0.001576816846376639 0  0.0003938693912949153 0.001581963325848367 0  0.0005826685933423704 0.001549649190876496 0  0.0005588975353500495 0.001562921084168975 0  0.0005624875990467392 0.001538924451304786 0  0.0004019885525321411 9.496341460940233e-05 0  0.0004049105635575082 0.0001165431260708589 0  0.0004196881076601842 0.0001055588114588312 0  0.0004600928285402256 0.0001100928285402256 0  0.0004406858233410831 0.0001105779470420664 0  0.0004500291764259202 9.592772558409101e-05 0  0.0003693769689137422 0.001484375 0  0.0003666345333894157 0.001500801475951312 0  0.00035 0.001484375 0  0.0005249648952423296 0.000181493383903615 0  0.0005362286472110919 0.000163000723979435 0  0.0005130453355696259 0.0001668666159017817 0  0.0005049463473057743 0.0004083996901731783 0  0.0005279724123961341 0.0004273158609396385 0  0.0005067423111091261 0.0004296860604719554 0  0.0003863233264160382 0.000687410741271933 0  0.0003682001687999986 0.000703125 0  0.0003879000505528427 0.0007075369597716743 0  0.00035 0.0009062499999999999 0  0.0003692716839831544 0.000921875 0  0.00035 0.000921875 0  0.000505421691194285 0.0008711201395839916 0  0.0004879561888237097 0.0008863535651476323 0  0.000503509427863102 0.0008972341112826622 0  0.0004648789043386271 0.0002593720772938378 0  0.0004711238981951637 0.0002784112977519765 0  0.0004408861497638079 0.0002770113952490173 0  0.000462 0.0004357500000000001 0  0.0004849898451623378 0.0004244563720896129 0  0.0004684397574398045 0.0004198126518787991 0  0.0004906459249266242 0.0006008828872523538 0  0.0004822846125991955 0.0006225501014530908 0  0.0004661287809802846 0.0006074276629996796 0  0.0005450355408019225 0.0006385598073387759 0  0.0005383481812750604 0.0006613291644331566 0  0.0005326522317978932 0.0006472895470367558 0  0.0005673557995661854 0.0007883470001880394 0  0.0005761985477427631 0.0007628064448896406 0  0.0005537610010348189 0.0007642606240187462 0  0.000386297314808828 0.00184375 0  0.0004089729826950937 0.001835867109974648 0  0.0003939600175914927 0.001829236790905214 0  0.0003818244485294118 0.001671875 0  0.0003963519311838627 0.001652725168354969 0  0.0003987557854855635 0.001669634134440319 0  0.0004281249999999999 0.001234375 0  0.0004281249999999999 0.00121875 0  0.0004124999999999999 0.001234375 0  0.000640987269772481 0.001651277085590466 0  0.0006304495147373019 0.001671020133875679 0  0.0006256964419214658 0.001655799442975097 0  0.0005655505656842477 0.001589320772368147 0  0.0005764267621452005 0.001616896577475614 0  0.0005870281104545009 0.001596847688424126 0  0.0006155763238751506 0.0003459555297495977 0  0.000599570548402765 0.0003589754143496878 0  0.000660128241971406 0.00178125 0  0.0006327575635728978 0.001782960010921228 0  0.0006458445871836022 0.001772528280919433 0  0.0006530163969580642 0.001901874467910473 0  0.0006309943812952129 0.001897978485867346 0  0.0006485740316982809 0.001881321124641875 0  0.0004156965976587429 6.884129294335458e-05 0  0.0003967838914022508 6.619146901920881e-05 0  0.0003929792587373214 8.173642052774126e-05 0  0.0005480079812156149 0.001671900754934947 0  0.0005472264557219762 0.001695610983219555 0  0.0005673914881321311 0.001680618111275686 0  0.000475 0.001423828125 0  0.0004498492419070866 0.001424790034752868 0  0.0004630461018123767 0.001440558748510402 0  0.0005003226010854007 0.001424200858778626 0  0.0005176090460528515 0.001420300018206277 0  0.0005029836166964651 0.001439597473136934 0  0.0005221733255718668 0.0008937774581138072 0  0.0005296875 0.0009296875000000001 0  0.0005518534029322068 0.0009229695630088639 0  0.0005427006431924467 0.0009480591205590742 0  0.0006109686556449087 4.255174892651209e-05 0  0.0005867762832242451 5.005180734240758e-05 0  0.0006051976831707128 6.670454273434434e-05 0  0.00044375 0.001119005668168123 0  0.0005062500000000001 0.00121875 0  0.0004906249999999997 0.00121875 0  0.0005062499999999996 0.001234375 0  0.0004598768866099071 0.0006286553066950465 0  0.0004125 0.00059375 0  0.0003945013391673 0.000603111060266248 0  0.0004109603530124879 0.000612773383200641 0  0.0004124999999999999 0.0013125 0  0.0004046875 0.001328125 0  0.000396875 0.001314453125 0  0.0004387364279758508 0.0004114783183288673 0  0.0004362078509670655 0.0004371863800549072 0  0.0004199668504574589 0.0004226105752283485 0  0.0004786643593620126 0.000322679790712329 0  0.0004813290279138869 0.0003463758102959437 0  0.000501813438850798 0.000324214158306668 0  0.0004382805013067014 0.0002396218914631315 0  0.0004125663581821375 0.000242524836200385 0  0.0004213803345479036 0.0002248563750174493 0  0.000463343680166346 0.0002271980796118594 0  0.0004858188652601388 0.000219963355726547 0  0.0004822778461303297 0.0002433494441513427 0  0.0004609821145479378 0.0001475989505007975 0  0.0004348657358268521 0.0001474189245349079 0  0.0004474865914548826 0.0001287608165577039 0  0.0003995255688553386 0.001813797396768981 0  0.0003760563025614922 0.00182132980235512 0  0.0003907378975234497 0.001798293300394025 0  0.0005010293804111232 0.001726787741076097 0  0.0004279293945253561 0.001938485380705314 0  0.0004450587745666618 0.001955545769192944 0  0.0004497490228515638 0.001939319333895022 0  0.0006210098982351405 0.001917989931291361 0  0.0006393974810934706 0.001914667661760388 0  0.0005708948411176694 0.0002935104863327085 0  0.0005551480299978069 0.0002705600717251082 0  0.0005821620659890032 0.0002691287410145459 0  0.0006090044312050095 0.0002700812590833895 0  0.0006098164102650431 0.0002475211939021595 0  0.000593204791361817 0.0002547613029173102 0  0.0005701398914346857 0.001761060696620139 0  0.0005843894014523994 0.001781748419260279 0  0.0005669528995972768 0.001778507192799635 0  0.0006343964586218029 0.001806319951446812 0  0.0006156729100402512 0.001824818256111712 0  0.0006339378065759708 0.001824580634560081 0  0.0005790090285699461 0.0003572648163148829 0  0.0005906001174110939 0.0003423698609619794 0  0.0005729617460821956 0.0003406013822577384 0  0.0005470861000332359 0.0004816279433958508 0  0.0005491668308406346 0.0005022176781195742 0  0.0005364732266627633 0.0004931004487044246 0  0.0004168763839846789 0.0009123444419923396 0  0.0004095461785803189 0.000930714990410896 0  0.0004328110954743225 0.0009203117977371613 0  0.0004346291866028708 0.0008151166267942585 0  0.0004381989576424332 0.0007886209031434089 0  0.000422641627178263 0.0007943764879440906 0  0.000405525390625 0.00040625 0  0.0004222043842496061 0.000393809246087962 0  0.0004208641595337596 0.0003439221476609867 0  0.0004168863642329476 0.0003636626018590019 0  0.0004218547752172595 0.001865959733348759 0  0.0004057540929014232 0.001889119815696879 0  0.000399759218022897 0.001861766043966869 0  0.0004757814194662401 0.001822547240507755 0  0.0004702833813543295 0.001844950711561888 0  0.0004473160352211737 0.001831633779911467 0  0.0004048274702233183 0.001923624987304736 0  0.000409395702211039 0.001906482637514356 0  0.0004214431561682602 0.001923181579145184 0  0.0005401507438007825 0.0002471130037243983 0  0.0005227386398006339 0.0002637106495314032 0  0.0005236417615977977 0.000247226001133201 0  0.000596472087973273 0.0001857796505142344 0  0.0006261728992155477 0.000185119559037
[...]
<PointData  Scalars="f_98_2"> 
<DataArray  type="Float64"  Name="f_98_2"  format="ascii">7.9806400120128929e-01  7.8932294823374372e-01  7.9527651171428737e-01  8.0581155095683599e-01  7.9578974766019162e-01  8.0520066475164265e-01  8.4737642822620496e-01  8.3685649600731149e-01  8.4080443107684355e-01  7.8003563972281720e-01  7.7934000988551833e-01  7.7548472986411754e-01  7.7777005231180929e-01  7.7254257487210309e-01  7.7740073808153543e-01  7.4119113130324676e-01  7.4499662891237461e-01  7.4647271046597241e-01  8.6138345746614675e-01  8.6680140119650273e-01  8.6839869414062865e-01  7.5177381176887759e-01  7.5401120204489225e-01  7.5646724313355462e-01  7.3561854680613004e-01  7.3065896450126477e-01  7.2985629992000733e-01  8.2127627828458460e-01  8.3040261370599533e-01  8.2319308788498147e-01  8.6058543437867296e-01  8.5361081577242504e-01  8.5552565794553503e-01  8.2082818029454885e-01  8.2449857355248946e-01  8.1829806536973271e-01  8.9833340889399960e-01  9.0328902006003187e-01  9.0070929161000790e-01  8.8091909756527975e-01  8.8867762192145816e-01  8.8627710433271512e-01  7.5752910356438363e-01  7.5634939731516115e-01  7.6268431478036725e-01  8.3200370398676449e-01  8.2554474801322497e-01  8.3545598934789400e-01  8.2017802452241173e-01  8.1553812921981728e-01  7.5202436197715206e-01  7.4518319680677225e-01  7.4629770439160570e-01  7.6270735544056378e-01  7.5713086624967274e-01  7.5675205423863290e-01  7.3153365123129166e-01  7.3233901906511478e-01  7.2674343527353713e-01  8.3912811717750879e-01  8.4932673435479322e-01  8.4455409319401775e-01  7.9130640562648258e-01  7.9973199372608494e-01  7.8685071027724041e-01  9.0642889406735572e-01  9.0392431030720621e-01  9.0147692229825149e-01  8.9267387338737758e-01  8.9651112351488305e-01  8.9581501756065607e-01  8.2321606278828230e-01  8.2855221975956406e-01  8.2874389631881240e-01  8.7349083741576417e-01  8.7454058178581273e-01  8.7728208299098687e-01  8.2072541460473480e-01  8.0909731089363002e-01  8.1235445421801022e-01  7.8276666113969162e-01  7.8620037758468064e-01  7.7976552068193450e-01  7.7777968829355770e-01  7.7195870659122734e-01  7.7741268758322446e-01  7.3148556858978520e-01  7.3680194906578633e-01  7.3160858811425489e-01  8.6967998927849499e-01  8.6437184561722291e-01  8.7074208084008198e-01  8.2104957169230697e-01  8.1931279193393225e-01  8.2487904172566429e-01  7.5897185663436162e-01  7.5847737193495413e-01  7.6789808584972619e-01  7.2777599767581480e-01  7.2886560428653302e-01  7.3274099711139151e-01  7.1190763694301484e-01  7.0903037331850094e-01  7.1742550499348123e-01  9.0390247187007267e-01  8.9740297035461192e-01  9.0011763077548079e-01  8.7248829128367344e-01  8.6380946495002564e-01  8.6759403202054663e-01  7.6144643537176937e-01  7.6033433294238262e-01  7.6641772676864539e-01  8.2721546076612762e-01  8.3283014136427358e-01  8.2893732037487589e-01  8.1049767964860275e-01  8.1977713349658532e-01  8.1191609875025550e-01  8.2917337701524496e-01  8.2623095281882863e-01  8.5569094196948525e-01  8.5713214299437479e-01  8.5468145771558091e-01  8.7119847196839728e-01  8.7191597108541485e-01  8.6961157386590493e-01  9.0494202732088469e-01  9.0953133801904484e-01  9.0953475081291868e-01  8.3962638797907785e-01  8.4599559115061629e-01  8.3984366766131902e-01  7.7110885738820967e-01  7.8129402593344954e-01  7.8020271597475610e-01  7.6015338377650776e-01  7.5087088789477452e-01  7.6296031196902514e-01  7.2562475548798988e-01  7.2279725852786547e-01  7.1569355385170852e-01  7.1849965843277019e-01  8.7689326699610826e-01  8.7858231611193172e-01  8.7626555611234735e-01  7.5084182017525203e-01  7.3405357005041860e-01  7.3950996405682601e-01  7.3478981851782599e-01  7.6641576617649954e-01  7.9045144642760312e-01  7.9439998172893589e-01  7.8705843037159806e-01  7.7436067636964057e-01  7.7904291589191998e-01  7.7965218436593775e-01  8.3496971253807617e-01  8.2748437059165403e-01  8.3639453662628260e-01  8.5215687280387220e-01  8.4516411898075161e-01  8.4763447953038773e-01  8.7899544363828475e-01  8.8415811832470548e-01  8.8540849596588622e-01  8.7623354981662949e-01  8.7343345055784660e-01  8.6969769570725930e-01  8.8861919546535328e-01  8.9393349817912005e-01  8.9337577487499675e-01  8.9656703382252856e-01  9.0354758505802935e-01  8.9635885895147482e-01  8.6001753613275300e-01  9.0233670583186698e-01  8.9944259918493175e-01  8.9781171019171435e-01  8.7401538512102006e-01  8.7275030562085232e-01  8.4631989015280606e-01  8.5330416397990805e-01  8.5081992718014388e-01  8.4846515539641154e-01  8.5311905309544822e-01  8.5291710211202820e-01  8.5796741112541031e-01  8.6041624688527174e-01  8.6156209294853114e-01  8.6089477653807223e-01  8.6473672832959658e-01  8.6361359113183522e-01  8.2815934515112544e-01  8.3168591476542997e-01  8.3368138984880802e-01  7.7817919152592896e-01  7.6443671954566172e-01  7.7504066593699261e-01  7.5824535831527162e-01  7.6006112847520746e-01  7.5327779652812754e-01  7.5629642123553031e-01  7.5664728735473485e-01  7.6124479116842148e-01  8.4512151885104325e-01  8.4450445435149912e-01  8.5890789767292697e-01  8.5450130929980739e-01  8.9802891474765478e-01  9.0399560807122836e-01  9.0272866801700213e-01  8.8174281326301618e-01  8.8574086974446908e-01  8.8845479029874164e-01  9.0676898356052227e-01  9.0453688902442853e-01  9.0291462754541862e-01  8.6010138782710255e-01  8.5900963250388729e-01  8.6230656712050635e-01  8.6488000003069054e-01  8.6289452721091298e-01  8.6604944149772933e-01  7.2532585242195569e-01  7.2807520517767366e-01  7.1267293587913039e-01  7.2088128518174732e-01  7.1688642608751585e-01  7.6842366991598454e-01  7.5908607555413077e-01  7.6117122729674902e-01  8.3587577105309829e-01  8.3049293539297075e-01  8.1672927528962225e-01  8.1494121238115080e-01  8.0790761516715781e-01  7.6953256194245401e-01  7.7352290689007286e-01  7.6748124383105287e-01  7.6347158108690638e-01  7.7156679709328435e-01  7.5225084780466400e-01  7.1151514417770945e-01  7.1762605526009193e-01  7.1723205748907515e-01  7.9796831507839616e-01  7.9557925432108778e-01  7.9199763105545129e-01  7.7731086178262077e-01  7.7125964168254713e-01  7.7257811406576071e-01  7.7475349168572416e-01  7.7990393269827785e-01  7.7654938654201278e-01  8.6978140475467258e-01  8.7060811648898251e-01  8.7122849301337868e-01  8.6902981085151765e-01  8.7185538278452390e-01  8.6842763105678922e-01  8.6098522534266586e-01  8.6038743962214048e-01  8.6263121371299190e-01  8.6328943116546752e-01  8.3692721550439630e-01  8.3497578538362704e-01  8.4232063794482681e-01  8.2788024862860643e-01  8.3455110925735598e-01  8.2615564882120462e-01  9.0627270404815874e-01  8.9111343286853650e-01  8.9445858257096367e-01  7.6770163492330501e-01  9.1065058601785553e-01  9.1630062709724514e-01  9.1527875660911473e-01  8.1272152426929278e-01  8.1458378462876124e-01  7.6631006126142476e-01  7.8040091363779718e-01  7.6724003759255321e-01  7.4566506650886732e-01  7.3963701707070950e-01  7.3610805481413544e-01  7.4211374765903626e-01  7.3397645044563453e-01  8.6509552959686553e-01  8.8448028588265704e-01  8.8108283474222260e-01  8.8031144080033330e-01  7.4421728812123122e-01  7.5366824377529673e-01  7.4864656963283716e-01  8.5535434341850447e-01  8.5913272082974779e-01  8.6480796423288087e-01  8.5950059484656127e-01  8.7411117670353600e-01  8.6674051594779966e-01  8.6376517898731642e-01  8.6671118374369449e-01  8.6735583507093295e-01  8.6806983574279573e-01  7.6031221634516510e-01  7.5892137743451571e-01  7.5186922162294889e-01  7.5193018562373859e-01  7.6792448825560622e-01  7.6003528391406217e-01  7.6572611515892208e-01  7.9428675922103675e-01  7.8857635179910202e-01  8.7710695808632877e-01  8.6844284141949779e-01  8.7467512895828547e-01  8.6184979769166448e-01  8.5637816132363864e-01  7.7581542009699767e-01  7.8314027330095071e-01  7.8578749456426955e-01  7.4545301346016568e-01  7.4272016762158621e-01  7.3670349495760679e-01  7.3332773873833090e-01  7.3760794191727752e-01  7.3904333588074833e-01  7.4776785177906313e-01  7.5276630918527532e-01  7.4715142976979843e-01  7.3966578991778875e-01  7.3197218586834856e-01  7.2702184922815782e-01  7.2354834512860289e-01  7.7436776517388994e-01  7.7408107369037926e-01  8.0691069636053314e-01  8.1852127019911158e-01  8.1307922189554016e-01  8.5070818930429459e-01  8.4364146998035716e-01  8.5415047282313805e-01  8.3773666946471859e-01  8.3796252888374112e-01  8.4478451974845192e-01  7.9566859110067234e-01  7.7996019318801291e-01  7.8114646181698877e-01  7.2351543229911763e-01  7.2547328638436348e-01  7.1945572369950972e-01  9.0015553537290116e-01  9.0406947038254315e-01  8.1853001156306116e-01  8.2782515309040083e-01  8.4716961578948347e-01  8.4205683694298306e-01  8.0300509790017971e-01  7.9981837694254709e-01  8.2503787420437491e-01  8.2165445753742472e-01  8.9495618541044042e-01  8.8864922197124807e-01  7.5038592560293316e-01  7.4400710681883564e-01  7.4576445753924947e-01  7.9641000818053242e-01  8.0069979064225005e-01  8.0123901323149216e-01  7.9561794279112708e-01  7.8683996414249535e-01  7.7108386890305425e-01  7.6969400118570086e-01  7.7938236412776263e-01  8.7209078599108458e-01  7.3602996836901458e-01  7.6003010751542566e-01  7.5447815575034483e-01  7.5968341269857453e-01  8.4511574303034920e-01  8.4943842766218358e-01  8.4906238917032117e-01  8.2872412617765467e-01  8.2492637912121292e-01  8.3224884406428790e-01  8.3145802875433372e-01  8.2773086699984810e-01  8.5240673269718437e-01  8.5227855113192807e-01  8.5236679195110621e-01  8.5814418415745708e-01  7.4614066575620719e-01  7.8087633920071386e-01  7.7482457243439917e-01  7.6629476036487532e-01  7.6891899807788955e-01  7.6255661242529815e-01  7.4269620142291981e-01  7.3720040352569305e-01  7.4501141262353132e-01  7.8155250320309055e-01  7.8552275961846318e-01  7.7683066841898518e-01  8.3412202088294840e-01  8.1845654577331972e-01  8.2088853810990603e-01  8.2647589422779599e-01  7.9229904410097374e-01  7.9458184858599856e-01  7.8647617061639163e-01  8.1533370176713438e-01  8.0912905029206095e-01  8.1653408106693504e-01  7.5497830532771371e-01  7.4615864100922524e-01  7.5170977197414612e-01  7.3843636609377283e-01  7.3734189127869165e-01  7.9842728786570838e-01  7.8804205620677104e-01  9.1514052726243988e-01  9.0912996802235324e-01  9.1276663367438504e-01  9.0341293799774780e-01  9.0654846111301846e-01  9.0578620875186300e-01  7.4012292309943051e-01  7.4163971591810507e-01  7.3383416777850685e-01  7.1735629622401265e-01  7.2226913580070362e-01  7.2557377460376515e-01  7.2058612283767709e-01  7.1350566990431707e-01  7.0962936130007714e-01  7.5863112985406322e-01  7.6294738013460073e-01  7.5232743868118057e-01  7.5355208387595085e-01  7.9901780880135787e-01  7.9977724460275079e-01  8.0239820923324867e-01  7.1174285458262576e-01  7.0675825419120619e-01  7.1415041919841904e-01  7.2153641062717278e-01  7.1942233989914395e-01  7.0743404338482696e-01  7.1357954823591363e-01  7.1227621432943355e-01  7.0732482270050845e-01  8.8334499290725399e-01  8.8430526622228611e-01  8.8199484957497565e-01  8.8802615475583402e-01  8.8690207798566600e-01  8.8927547912077143e-01  8.7561023559414930e-01  8.7645033406324924e-01  8.7540147067460750e-01  8.7707251834156896e-01  8.3697949487333878e-01  8.4194706937213970e-01  8.3838124881895315e-01  8.5532459671873107e-01  8.5618838402494979e-01  8.5226214115521171e-01  7.4487391003179959e-01  7.4034197763114284e-01  7.4681955560583591e-01  7.4579128268714090e-01  7.4127644923786662e-01  7.3760156448449776e-01  7.3259221295958832e-01  7.3878575195841523e-01  7.6099913703773336e-01  7.5333015846840223e-01  7.2722811224424222e-01  7.3475253230102455e-01  7.2830203599003207e-01  7.1208176837136739e-01  7.1807194957484588e-01  7.1178075857361423e-01  7.2204145679655019e-01  7.2795512357424841e-01  7.2746012639069535e-01  8.2926664767639191e-01  8.2500665654626104e-01  8.3069378810081818e-01  8.5801923019268356e-01  8.5926221350678711e-01  7.6727612819651048e-01  7.7244434178692511e-01  7.1128227253543763e-01  7.2400250380891829e-01  7.2466220848328122e-01  8.4518317675506816e-01  8.4384115351308175e-01  8.8587000731834142e-01  8.8296450167855556e-01  8.8559421125869464e-01  8.7348776598581834e-01  8.7564780598472347e-01  8.7574476428683967e-01  8.8741244371294759e-01  8.9560487038971370e-01  8.9273751104373356e-01  8.7891291471235300e-01  8.7164743399917954e-01  8.7400155986420291e-01  8.8493359086202295e-01  8.8513356752396644e-01  8.8982383942883592e-01  8.7768625893694219e-01  8.7778077428171275e-01  8.8897719614674642e-01  8.8708108003920283e-01  8.9466975913291291e-01  8.9195250017269490e-01  9.0602605188466012e-01  9.1121354388297549e-01  9.1727273036764789e-01  9.1287101438877805e-01  8.7587769289740158e-01  8.7734360754208918e-01  8.7544342904235539e-01  8.7669716138546261e-01  9.2315636022304881e-01  9.1898997755967293e-01  9.1852793840495151e-01  8.9227335149132492e-01  8.8400037378431218e-01  8.7406759886408181e-01  8.7302128737578888e-01  8.7371446785480122e-01  8.7330054973013649e-01  7.7248267780836899e-01  7.8376432640170490e-01  7.8499368944988346e-01  8.7107517347091923e-01  8.6953784199061079e-01  8.7285813698438008e-01  8.8080517907635514e-01  8.7895357685730247e-01  8.8335073338385905e-01  8.7539842909392740e-01  8.7761074248201110e-01  8.6915745637052078e-01  8.6477496958266442e-01  8.3167669990746829e-01  8.3239179207568748e-01  8.2851344153569628e-01  7.2360343935619686e-01  7.2563701671948255e-01  7.4044308864882846e-01  7.4779249496528422e-01  7.3663207173437617e-01  8.9100816062523280e-01  8.7635057229168001e-01  8.7668234218205798e-01  8.7446852578896228e-01  8.6407911193913811e-01  8.6776935849090242e-01  8.7328373588828789e-01  8.7344008269584095e-01  8.8154122323851236e-01  8.7893078657239687e-01  8.7324304043247114e-01  9.0067053723725521e-01  8.4379741193312774e-01  8.3591876584667124e-01  8.4017538818803184e-01  8.3772644665931739e-01  8.4540897844993323e-01  8.4195351121754869e-01  8.6770918812896325e-01  8.6472212550317284e-01  8.6588208823394763e-01  8.7177084103740465e-01  8.9518107668916935e-01  8.7385949486302961e-01  8.7456093851002281e-01  8.7681929135811509e-01  8.7627481519588768e-01  8.7856372664780136e-01  8.8244980068221224e-01  8.8021614161899175e-01  8.8044281188594187e-01  7.9962177295455594e-01  8.0710093063793631e-01  7.9929545928435775e-01  7.3604214946083690e-01  7.3099809097904689e-01  8.7799793659395931e-01  8.8080256451642802e-01  8.8003712057854289e-01  7.6640483698984041e-01  7.7710746557464316e-01  8.2457099795986832e-01  8.2000210164880771e-01  8.1312871980011714e-01  7.9122421125429010e-01  7.9582169877447861e-01  7.9509262141645121e-01  8.0456478777322482e-01  8.0593048450591220e-01  7.5573782045401894e-01  7.5663335957836342e-01  7.5157735876757903e-01  7.4055846165152239e-01  8.2604671598934487e-01  7.6202145202891591e-01  7.6285747975997198e-01  7.6753389339007128e-01  7.5023205233094559e-01  7.4772174665900981e-01  7.4318963740476840e-01  7.4470212521637325e-01  7.4956517334175443e-01  7.4032701510867294e-01  7.3107048356847903e-01  7.2430658223326416e-01  8.6397843043101452e-01  8.5772096109427043e-01  8.6397871422549022e-01  7.4977018252077687e-01  7.5609553885238467e-01  7.5521200756516693e-01  8.1683307078321932e-01  8.1246164987831593e-01  8.2068597191737847e-01  8.5272476966402622e-01  8.5256026993865763e-01  8.5550594314271800e-01  8.6161795697554222e-01  8.1492999152193435e-01  8.0545355697311494e-01  8.0386707651798306e-01  8.3858968418067070e-01  8.4403508669068639e-01  8.4354161713650722e-01  8.5276187044078089e-01  8.5426652139082437e-01  8.6491884921258799e-01  8.7027839276833963e-01  8.6885259662664904e-01  8.7480690930284788e-01  8.1314325081509975e-01  8.1788862882875379e-01  8.1521917409481981e-01  8.0665264391821923e-01  7.8325812964869590e-01  7.0000043303289827e-01  7.3333827223120962e-01  7.0000043303289827e-01  9.0860174927133475e-01  9.1275728965682690e-01  9.0997827063849501e-01  9.1114667193802656e-01  8.7890432520318518e-01  8.8204271799526046e-01  8.9089281716782398e-01  8.2663402712710587e-01  8.6565323283052120e-01  8.5809890614313333e-01  8.5399851890302958e-01  8.5270570910226517e-01  7.2085620775839232e-01  9.2309893005379640e-01  9.2339408257032407e-01  9.1705267130771273e-01  7.5191782297401288e-01  7.5823456586234417e-01  7.7845639524793708e-01  7.6954961365671792e-01  9.1409187434781292e-01  8.3910212220965241e-01  8.3909813449235204e-01  8.4094317524371764e-01  8.4246653729159193e-01  8.5234692437223669e-01  8.5478584714160200e-01  8.5586383578076064e-01  7.7410604135853167e-01  8.0415191057814883e-01  7.9943553976960025e-01  7.8969683788279099e-01  7.9046556813568691e-01  7.8029271559918445e-01  8.7827570140690392e-01  8.8193877244463492e-01  8.9856390628695315e-01  8.2894404263582211e-01  8.8951146105558432e-01  8.9184888406364682e-01  8.7330429084236871e-01  8.7488883605269607e-01  7.0000043303289827e-01  7.0532762361671497e-01  7.0583696103906923e-01  7.4394115722539456e-01  8.7246178305675703e-01  8.9197609831991853e-01  9.0034238321803539e-01  9.0343902078020188e-01  8.9608739808577842e-01  7.6454945729878210e-01  7.5025554111330939e-01  7.5354487939818704e-01  7.2559697786699429e-01  7.3778444578583202e-01  7.1955723176301656e-01  7.1058859339287861e-01  7.1713026819992720e-01  7.1396548795957493e-01  7.0810496171940940e-01  7.0533347683814074e-01  7.0000043303289827e-01  7.0797648538522784e-01  7.0771589787778388e-01  8.2055839454686041e-01  8.0839507204645455e-01  8.0273434743364558e-01  7.4478143663621554e-01  7.4968287079453899e-01  7.4960479145826375e-01  7.6742639674545932e-01  7.6101812717127604e-01  7.6554757749925972e-01  7.4335808464970787e-01  7.2168519134863240e-01  7.9929616798093428e-01  7.9236747611096658e-01  7.8962948213603645e-01  7.8166267949084878e-01  7.8265682052843377e-01  7.7725828145543363e-01  7.7268854045035718e-01  7.6901344712619513e-01  7.6805385461736242e-01  7.3655117595629738e-01  7.5347882409021505e-01  7.5223928251365080e-01  7.2137172465218558e-01  7.2702337362256653e-01  7.2663980482108803e-01  7.3282040863581221e-01  7.3877011491032185e-01  7.3339984711261219e-01  7.6526325565911246e-01  7.7007242861373659e-01  7.6504999818941444e-01  7.5615680796274232e-01  7.5412525553382304e-01  7.6216865270867029e-01  7.6373031090303989e-01  7.5640317705447280e-01  7.5812115993270202e-01  7.6192868855338269e-01  7.6914532512781686e-01  7.5529241041186723e-01  7.5013712187886017e-01  7.1377259455939590e-01  7.1981237261741815e-01  7.2056083561945539e-01  7.0576528075000056e-01  7.8044884619097943e-01  7.8225448330391656e-01  7.8580259922128326e-01  7.6074342619861268e-01  7.6603835328027214e-01  7.5785044390822287e-01  7.0000043303289827e-01  7.0899780420239467e-01  7.0532122029687427e-01  8.6645979730159550e-01  8.6738677196970038e-01  8.6406558428041358e-01  8.5891150807085814e-01  8.7092503626185602e-01  8.7197484055773034e-01  8.7140670533336817e-01  8.7415156992326093e-01  8.7278558234940906e-01  8.7312298013415446e-01  7.0000043303289827e-01  7.1493432870280615e-01  7.5309420984883790e-01  7.3751778627355058e-01  8.7613162336048223e-01  8.7520620605853072e-01  8.8092415204236618e-01  8.7833735714123784e-01  8.6087708323016410e-01  8.6468541535857368e-01  8.7136297896553960e-01  8.5984367500887315e-01  8.4307464635472995e-01  8.1881579291798035e-01  8.1406682031761490e-01  8.0380166671365927e-01  8.0930943209803152e-01  8.1307938105831079e-01  7.7469683372357867e-01  7.8167063742576226e-01  7.6996562002588276e-01  7.8583266834116750e-01  7.9846998091354904e-01  7.9226066876772772e-01  8.5100792569494343e-01  8.4825286485665197e-01  7.6458896155281086e-01  7.7496631674151983e-01  7.9136328350734608e-01  7.8517215743282032e-01  9.2167278448952905e-01  9.1614018912153683e-01  7.3562779701825398e-01  7.2761572076129433e-01  7.2922823478143928e-01  7.2367696344142396e-01  8.8799431545424401e-01  8.9098614355903982e-01  8.9058360026283256e-01  7.2399625987587002e-01  7.3186160057111338e-01  7.0000043303289827e-01  7.3446522397652225e-01  7.3412944127800