<?xml version="1.0"?>
<VTKFile type="UnstructuredGrid"  version="0.1"  >
<UnstructuredGrid>
<Piece  NumberOfPoints="1847" NumberOfCells="3387">
<Points>
<DataArray  type="Float64"  NumberOfComponents="3"  format="ascii">0.0002177734375 0.0013447265625 0  0.0002336351799242424 0.0013359375 0  0.0002195029485352448 0.001329140350930789 0  0.0001217720197424626 0.001844519506144886 0  0.0001449077854636456 0.001858726712495161 0  0.00014126959850533 0.00183961319235558 0  0.0001249999999999999 0.00125 0  0.0001406249999999999 0.00125 0  0.0001250000000000002 0.001234375 0  9.280188106796115e-05 0.00140062765473301 0  0.0001181339898761 0.0013994140625 0  0.0001071489260187116 0.001383152212140429 0  0.0001369956815932223 0.001820631709518397 0  0.0001649445046149324 0.001814249761891365 0  0.0001486751105099793 0.001807390189052217 0  0.000170863762392675 0.000617184876348013 0  0.0001920011959515174 0.000637057653354596 0  0.0001956306343536475 0.0006120195726364339 0  8.025380291005286e-05 0.0009261326058201059 0  6.31625848608086e-05 0.0009046880050928054 0  8.658621851089941e-05 0.0009011538387259958 0  3.17396313364056e-05 0.001772811059907834 0  5.039105794483648e-05 0.001780261216330682 0  4.674150605464633e-05 0.001761661147420086 0  0.000158038587602722 0.0002094852860782868 0  0.000136694048934766 0.0001984534119029377 0  0.000164538609845317 0.0001920549285370309 0  1.926976121860845e-05 0.001919941333882256 0  1.587083939108011e-05 0.001893718949460298 0  -1.665377981468843e-06 0.001909323452948489 0  0.000169182416841374 0.0004141913773007619 0  0.0001848956789848311 0.0004229236928944182 0  0.0001837840343392467 0.0004064203489490434 0  8.083550360365815e-05 0.0003491710072073163 0  5.653380619983697e-05 0.0003472419867079952 0  6.712417412188952e-05 0.000367865350624548 0  0.00014 0.001735 0  0.000145429751156009 0.001714534167719305 0  0.0001592930929221081 0.001723610883556451 0  0.00015625 0.001946565887973755 0  0.0001780131507570502 0.001948351004146477 0  0.000173738226916827 0.001931744067736716 0  0.00015625 0.001125 0  0.000140625 0.001140625 0  0.000140625 0.001125 0  0.0001874999999999999 0.0011875 0  0.0001718749999999998 0.001203125 0  0.0001874999999999998 0.001203125 0  0.0001249999999999999 0.0013125 0  0.0001093749999999999 0.001328125 0  0.0001249999999999999 0.001328125 0  3.256632952242805e-05 0.0004997646265705488 0  1.617823394520193e-05 0.0004853640580205465 0  3.144099860866477e-05 0.0004845200204792836 0  0.0001051050723665379 0.0007723172554833977 0  0.0001219671879178505 0.0007733005639050422 0  0.0001135924590798607 0.0007879247822914744 0  0.0001406035038305788 0.0005628525500198131 0  0.0001598841628690399 0.0005676742657173491 0  0.0001377011279230226 0.0005810695232328088 0  0.0001784989529740543 0.0004397237476312119 0  0.000159806805933796 0.0004475217624581715 0  0.0001753592977561217 0.0004584997828616857 0  0.0001875 0.0009643750000000001 0  0.0001848064344089674 0.0009839603031998132 0  0.0001691925088154962 0.0009681031141247636 0  0.0001724885293521608 0.0008203978700769733 0  0.0001919590091629991 0.0008271812411454692 0  0.0001981036077985903 0.0008131368157500606 0  0.0001040274026113161 0.0002767222132270925 0  9.251218858792045e-05 0.0002586972040469538 0  7.62655455229572e-05 0.000268670072047626 0  0.0001872079590298162 0.0008008918315172111 0  0.0001717261495543478 0.0008045158461571694 0  9.375000000000003e-05 0.00103125 0  6.770833333333336e-05 0.001036784806130125 0  8.45927125559996e-05 0.001046165637394529 0  4.824743549153739e-05 0.001743030286729358 0  2.22710967523339e-05 0.001748096935304518 0  3.162639331390473e-05 0.001726938136354948 0  0.00025 0.0014375 0  0.00023046875 0.001453125 0  0.00025 0.001453125 0  0.0002109375 0.00115625 0  0.0002287326388888889 0.001168402777777778 0  0.00019921875 0.001171875 0  -0.0001 0.0015625 0  -8.086240563414712e-05 0.001576308902802857 0  -7.90944916404986e-05 0.001552304799793629 0  2.258064516129028e-05 0.001705645161290323 0  8.016858698368786e-06 0.001723582675001268 0  1.466506939470813e-06 0.001703637763930368 0  0.0001067627604416744 0.0004127824842803355 0  9.719926895009443e-05 0.0003862007675234975 0  8.554839293701715e-05 0.0004019267890772086 0  0.0001874999999999999 0.00153125 0  0.0001845026597108245 0.001550826184225335 0  0.0001714746629026108 0.001526303764509122 0  -6.178518620114296e-05 0.001536768702078171 0  -5.99082199503002e-05 0.001565452779320806 0  -4.784614941351221e-05 0.001550260038748722 0  0.00015625 0.00115625 0  0.00018359375 0.00116015625 0  0.000171875 0.001140625 0  0.0001562499999999999 0.00121875 0  0.0001406250000000001 0.001234375 0  0.0001562499999999999 0.001234375 0  9.089920856386933e-05 0.001372149208563869 0  8.868857225937936e-07 0.000103209508578075 0  2.521662254551958e-06 0.0001323837125171765 0  -1.420079046019864e-05 0.0001250687283831302 0  -4.353438551498289e-05 0.0002436063974142909 0  -7.25596317185563e-05 0.0002398047104091068 0  -5.997632590708819e-05 0.0002564355696336525 0  0.0001012708416836604 0.0005787083166326791 0  0.0001064667685906656 0.0006045740726551661 0  0.0001158109119910199 0.0005892422578305412 0  9.766332164244924e-05 0.0007934262754546053 0  7.994489070096991e-05 0.0007794105097981566 0  6.249999999999995e-05 0.00125 0  7.812499999999991e-05 0.001234375 0  6.228298611111103e-05 0.001234157986111111 0  8.168066914916895e-05 0.0006136120074587597 0  0.0001015579016063113 0.0006223410433050632 0  3.05982509996415e-05 0.0005674130641851037 0  5.100598203296064e-05 0.0005623860477196798 0  3.938373330464185e-05 0.0005801975797417929 0  6.250000000000001e-05 0.001498046875 0  8.126410496981511e-05 0.001489699796209753 0  8.368381967726278e-05 0.00150776553412096 0  7.354503941885304e-05 0.001612093214463606 0  5.807554573078008e-05 0.001632466960877238 0  5.818783524710109e-05 0.001616492465054299 0  -3.4516850242847e-05 0.0001875 0  -1.578892113152241e-05 0.0001849868336084552 0  -2.498861713214656e-05 0.0002013727322018552 0  1.005537135742441e-06 6.342849954929779e-05 0  -1.210672816878627e-05 3.804656384943845e-05 0  -1.786007272227607e-05 5.709658692630229e-05 0  0.00025 0.00159375 0  0.00025 0.001609375 0  0.0002311894665816126 0.001600286497332613 0  0.0001757318287308065 0.0002465507999588711 0  0.0001599663917022355 0.0002313207434322913 0  0.0001557275274109881 0.0002485580604407719 0  0.0001344907321287367 0.0001010711956347496 0  0.0001102902295560004 9.397834626597316e-05 0  0.0001341913925721563 8.371650700976738e-05 0  -2.592612650833724e-05 0.0001390567915884722 0  -1.372098358511414e-05 0.0001662045289464989 0  -3.974905907577875e-05 0.0001615888147274537 0  -4.477260321002801e-05 0.001864432434423598 0  -7.250363579463135e-05 0.001854404529547973 0  -6.545521379630519e-05 0.001878270382392028 0  0.0001089699100521713 0.001907362856172102 0  0.0001223094059317686 0.001921066198052525 0  0.0001171259281610002 0.001893077558961689 0  0.00025 0.001875 0  0.0002244083033915435 0.001859375 0  0.00025 0.001859375 0  0.0001401473871431221 0.001914171986326957 0  0.0001577133247144994 0.001925639330218741 0  0.0001549995895424668 0.001903124161617028 0  -1.427946466750686e-05 0.001717521962284744 0  5.168274613674711e-05 0.001800303972799528 0  5.256620040187397e-05 0.001822825583733684 0  3.913674170043043e-05 0.001813216472483805 0  7.676542500261126e-05 0.001061820212501306 0  5.103771419862475e-05 0.001051189911552185 0  0.0001289260226277273 0.0001757168918072468 0  0.00011085615762758 0.0001826656936012183 0  0.0001718836384266996 7.811636157330036e-05 0  0.0001617547627214563 0.0001035501687786014 0  0.0001872422623007381 9.896663868468526e-05 0  0 0.00053125 0  2.620220835029871e-05 0.0005257668975583738 0  1.807315132367294e-05 0.0005476800758445199 0  -6.549393421641586e-05 0.00040625 0  -7.021452412055531e-05 0.0003767867503308493 0  -5.431741859201229e-05 0.0003893495128688649 0  -0.0001 0.00021875 0  -8.165322543349942e-05 0.0002232475717164909 0  -0.0001 0.000234375 0  0.000175 0.00103125 0  0.0001606119612145136 0.001054482077493663 0  0.0001524591068323989 0.001037258276903362 0  0.0001696134868421053 0.001488898026315789 0  0.0001949250379554656 0.00148836032388664 0  0.0001773354194119815 0.001510589815045221 0  0.000171875 0.0014375 0  0.0001503226010854008 0.001424200858778626 0  0.0001688858544812335 0.001418230840646016 0  0.0002057354058842249 4.426459411577509e-05 0  0.000203125 1.945152689766794e-05 0  0.0001871527527048076 3.367569785753443e-05 0  0.00025 9.375e-05 0  0.0002297260203561285 9.444601205662752e-05 0  0.00025 0.000109375 0  0.00025 6.25e-05 0  0.0002233663301437518 6.430892195169336e-05 0  0.0002266158757050496 4.367441729908843e-05 0  0.0001876988116309136 1.584167822471913e-05 0  3.906249999999999e-05 0.001459708921370968 0  5.193107358870967e-05 0.001436885710685484 0  6.471078045485035e-05 0.001450720991050328 0  0.00016796875 0.001171875 0  0.0001718749999999999 0.0011875 0  0.00025 0.00125 0  0.0002343749999999999 0.001234375 0  0.0002343749999999997 0.00125 0  0.0001874999999999998 0.00125 0  0.0002031249999999998 0.001265625 0  0.0002031249999999998 0.00125 0  0.0002109375 0.001415291078629032 0  0.0002282386968464273 0.001430317902308034 0  0.000217091114789706 0.00144292047566049 0  0.000155517578125 0.0013994140625 0  0.0001711237336308772 0.00138763530829845 0  0.0001434039421762215 0.001383275589857848 0  6.250000000000003e-05 0.00109375 0  3.456138024516727e-05 0.001088630068363979 0  5.762458798788493e-05 0.001071696764352697 0  3.124999999999997e-05 0.0013125 0  3.90624999999999e-05 0.0013359375 0  1.874999999999995e-05 0.0013359375 0  0.000153923004316241 0.0003495606438940294 0  0.0001759689110550446 0.000365286288836531 0  0.0001731832615399624 0.0003403076414839072 0  0.00022401891220836 0.0002855365761631975 0  0.0002311870607393943 0.0002635114861759949 0  0.0002110849484998775 0.0002586148766129067 0  -1.031095433534538e-05 0.0003569836422050074 0  -6.15225569456
[...]
<PointData  Scalars="f_92_0"> 
<DataArray  type="Float64"  Name="f_92_0"  format="ascii">-1.3919384598515782e+01  -1.4445021261876628e+01  -1.3625550770568054e+01  -2.8983928199148060e+01  -2.9922745234020738e+01  -2.9453682898645170e+01  -7.3450661200865426e+00  -8.1947277442504376e+00  -7.1819559835510436e+00  -8.1412758099285671e+00  -9.8776361425843380e+00  -8.6447413047471944e+00  -2.8920868651265849e+01  -2.9656961973170731e+01  -2.8970542984805498e+01  -1.2495101468999064e+01  -1.3061740731717078e+01  -1.3975357146903889e+01  -4.0708538789930087e+00  -3.2415325790181635e+00  -4.4361901421964021e+00  -2.5260432070564718e+01  -2.5794644589819242e+01  -2.5186900409232067e+01  -2.8690874699073703e+01  -2.8301480170906505e+01  -2.9340649839937882e+01  -2.7907917622319896e+01  -2.7549205356906299e+01  -2.7507450603821269e+01  -2.1269905724093327e+01  -2.1495529958549930e+01  -2.2226353091323713e+01  -2.1521685740324628e+01  -2.1079156400699979e+01  -2.0299824257725945e+01  -2.6624719135752663e+01  -2.6089759934680760e+01  -2.6858344050954351e+01  -3.1349973578793183e+01  -3.2087748337957549e+01  -3.1818708273629476e+01  -7.9905188538549083e+00  -7.3016048098990156e+00  -7.2267805146245641e+00  -9.9191616282052859e+00  -9.3012273888443140e+00  -1.0066279055092052e+01  -8.2172710170960954e+00  -7.5422105885384099e+00  -8.5044770012266273e+00  -8.9711860322017731e+00  -1.0552926271274817e+01  -1.0961763081902456e+01  -6.0199782561784598e+00  -6.9307206730638065e+00  -6.3576816331799044e+00  -1.2637986584803427e+01  -1.3573753216372312e+01  -1.1753154682194953e+01  -2.0416173808752216e+01  -1.9223574744157219e+01  -1.9363844687135629e+01  -9.1922534366144362e+00  -9.0493837095501384e+00  -8.3338161470438639e+00  -9.1116096351075271e+00  -9.9961413809536808e+00  -1.0405452389059402e+01  -2.5043499511695593e+01  -2.5365733230050342e+01  -2.4647839126161855e+01  -9.9955492539986359e+00  -9.2071967913092809e+00  -4.6951395192634342e+00  -3.4061543401051089e+00  -4.2546850046868583e+00  -2.4628205528451900e+01  -2.4359642397724908e+01  -2.3798441270387407e+01  -1.8343550055076090e+01  -1.8069300337542533e+01  -1.8947670739471036e+01  -1.0772540335745516e+01  -1.1679984679992511e+01  -1.0347314847969693e+01  -1.6534562951519650e+01  -1.6961280535413461e+01  -1.6121864875516927e+01  -2.2887787727807737e+01  -2.3339801667256907e+01  -2.2533773543492437e+01  -1.8993644782663310e+01  -2.0125729051210900e+01  -1.8937585969211217e+01  -1.9526111632166266e+01  -2.0340812017103559e+01  -1.8549387353292811e+01  -1.5442853718205660e+01  -1.6391151228846397e+01  -1.5614281427575117e+01  -8.1633748722685873e+00  -9.5162859394190882e+00  -8.8276698621620611e+00  -8.6689447937330080e+00  -8.0186357808737547e+00  -8.8366605791420252e+00  -7.2255620552477700e+00  -2.7226400043041355e+01  -2.6815531911093768e+01  -2.6737806568567926e+01  -2.3742785374204235e+01  -2.3712600240545768e+01  -2.3255145138716735e+01  -9.4093096705120072e+00  -8.9056954056268971e+00  -1.0044960665227425e+01  -5.4603946007842827e+00  -4.5746261082058206e+00  -3.7670463883283793e+00  -4.5699529500441685e+00  -3.6592685744833675e+00  -6.8669924085050393e+00  -8.0675947929234670e+00  -3.6144435052131105e+00  -5.9175193509373392e+00  -4.1530972987263448e+00  -1.0997113282976198e+01  -1.1637773894037085e+01  -1.3068199237256707e+01  -1.9556466963369157e+01  -2.0282152985192521e+01  -1.9446453587391336e+01  -2.5322960012044625e+01  -2.5554944988867220e+01  -2.5066877997148310e+01  -2.7646601699293416e+01  -2.7647842005199966e+01  -2.7476417028118298e+01  -2.5164705569622114e+01  -2.5858590835550526e+01  -2.4643999885207077e+01  -2.8239449966733950e+01  -2.8151567112599032e+01  -2.7497451037868696e+01  -3.0063071970819905e+01  -2.9475153948950574e+01  -3.0256939150465865e+01  -2.6391496343274245e+01  -2.5991686682621154e+01  -2.5847482396457487e+01  -2.6459790297003810e+01  -2.6139945804071552e+01  -2.6568192975426001e+01  -2.9611441838276562e+01  -3.0122863952267981e+01  -2.9652890778547178e+01  -3.4109554204691122e+01  -3.2771235555280406e+01  -3.3851241327156544e+01  -3.0566205763566114e+01  -3.1230364024471307e+01  -3.0902089595828780e+01  -2.2875245161982935e+01  -2.6352909813945114e+01  -2.6905823215423425e+01  -2.6438909635989891e+01  -3.8820617618102888e+00  -2.5807865266574730e+00  -2.8609741848222640e+01  -2.7954805612871006e+01  -3.1507648227800669e+01  -3.0881296620912547e+01  -3.1814756017380727e+01  0.0000000000000000e+00  -5.3040964833921285e+00  -2.6897301250130572e+00  -1.7399473714450121e+01  -1.8654263907517002e+01  -1.8107791196073126e+01  -2.4265223169695769e+01  -2.4164085117677889e+01  -2.3825002017007261e+01  -8.6072336312815665e+00  -7.9656004673276195e+00  -7.5499516692313646e+00  -1.6643970960834753e+01  -1.7871849476293040e+01  -1.8056022502446869e+01  -1.4521120918035050e+01  -1.2780622207338473e+01  -1.3619718992303888e+01  -3.2991055663850219e+01  -3.2990824339990972e+01  -3.2351686092903854e+01  -3.4379365804334199e+01  -3.3510340176800511e+01  -3.4180972912001259e+01  -3.4681361800407423e+01  -3.3547653366345294e+01  -3.3819869805930566e+01  -3.2428120181036554e+01  -5.8327949948201674e+00  -6.0255217047339853e+00  -7.8773174505152337e+00  -8.8464073955008686e+00  -9.1607101725190514e+00  -1.3536311650699574e+01  -1.2624938530176323e+01  -1.2840609639397195e+01  -1.0617442068369249e+01  -1.1612843614421640e+01  -1.1381001080208058e+01  -1.5715330461853503e+01  -1.7088475411654468e+01  -1.7037557901028855e+01  -1.2203778426008082e+01  -1.2713432589360750e+01  -1.0977493910464958e+01  -3.2080577150601677e+00  -1.7749497182575285e+00  -2.9313477868398929e+00  -2.1650269199899479e+00  -2.8804150277593417e+00  -1.3896828401187797e+00  -2.3680838620229824e+01  -2.3792770304443788e+01  -2.4758673147574402e+01  -2.8798967792457777e+01  -2.9833708479827777e+01  -2.9178756111424232e+01  -1.9716049671354558e+01  -1.8547731849958389e+01  -1.9473607558445742e+01  -1.9823317844924116e+01  -1.8918800304766588e+01  -1.6257674351390797e+01  -1.7892855117672603e+01  -1.6426551960455271e+01  -3.1828787647452625e+01  -3.2459118931956752e+01  -3.1486915173094271e+01  -3.0195078075932795e+01  -2.9646443912341113e+01  -2.8720789748179140e+01  -1.5811339333518491e+01  -1.7117907550394417e+01  -1.6928632887897500e+01  -6.0013903732481246e+00  -6.9393902248030770e+00  -8.1759239925748197e+00  -9.2013729632349897e+00  -8.2687097207177143e+00  -1.8490206256177309e+01  -2.0371523320326453e+01  -2.0121012769558074e+01  -1.6846855249599624e+01  -1.6403769949400075e+01  -1.7694011500635678e+01  -1.0020172067627243e+01  -1.1263968469976049e+01  -1.0247843863072243e+01  -2.0200062232535441e+01  -3.2741830371679043e+01  -3.1285194514563649e+01  -3.2364760917349216e+01  -9.0238175097331226e+00  -1.0049810279738372e+01  -9.8315786029520513e+00  -2.9659846495432397e+01  -3.3563767226968835e+01  -3.2680934112851574e+01  -9.5445049951556076e+00  -1.0550725057136606e+01  -9.5484055333791638e+00  -3.0389372459534684e+01  -3.0238961549372437e+01  -2.9515147261644969e+01  -2.8887953016711496e+01  -1.1899871725890998e+01  -1.1768406905660079e+01  -1.3065061901690008e+01  -6.9549952148516603e+00  -6.1392965760954556e+00  -7.3442062821392957e+00  -1.0445813711362652e+01  -1.1266603100349361e+01  -1.0712017439787052e+01  -1.0598390669060590e+01  -1.3514814695292147e+01  -1.2904288545206292e+01  -1.3750164795186468e+01  -1.0447193287236738e+01  -1.0805670164174440e+01  -3.3975028278858218e+01  -3.4946496856638099e+01  -3.3801686847623415e+01  -2.7015081587352849e+01  -2.7122336945067662e+01  -2.7202671643394730e+01  -1.3383341350703388e+01  -2.3270793899186952e+01  -2.4575875125282849e+01  -2.3758471427480664e+01  -1.6020391885181162e+01  -1.6543810600347072e+01  -1.5093232491451111e+01  -8.4565146924817256e+00  -5.8433624755507676e+00  0.0000000000000000e+00  -3.1548981251178329e+01  -3.2175198146892136e+01  -1.4644794870830939e+01  -1.6377561102558168e+01  -1.5055722501006683e+01  -1.7121282984203503e+01  -1.8071640161710032e+01  -1.6395796477557425e+01  -1.7486947027584229e+01  -1.5969197169234345e+01  -1.7052418249197665e+01  -8.8268358653362640e+00  -9.2216707943802803e+00  -9.7816922537661526e+00  -1.7792297493328277e+01  -1.9376270862431120e+01  -1.8870460787481132e+01  -7.5168796296538991e+00  -6.2981769351632462e+00  -6.8922929585609305e+00  -8.7367291505013434e+00  -9.7955682975360396e+00  -7.8190867764981116e+00  -8.1819223615181933e+00  -2.2920792325743164e+00  -3.6469357185415205e+00  -2.5395666341507930e+00  -5.6063262317112672e+00  -2.8345715829553153e+01  -2.9746148881300982e+01  -2.8736405631800011e+01  -2.3981856013799803e+01  -2.4453919951980435e+01  -2.3089194668455114e+01  -3.1157303709700379e+00  -4.4235740151349034e+00  -1.8406365867000654e+00  -2.8377601014775196e+00  -1.8384468397799962e+00  -5.0076746608283944e+00  -5.1868919942860838e+00  -1.9990691397045367e+01  -2.0704663352071531e+01  -2.1153635731188114e+01  -2.7099079347167063e+01  -2.6679214538323187e+01  -2.6943399352382318e+01  -2.5492697182685106e+01  -2.5928005158759962e+01  -2.5412340806757967e+01  -2.5572566494655032e+01  -2.5052364847424190e+01  -2.5023242182193790e+01  -2.7108527210171776e+01  -2.7674596591201581e+01  -2.7502306792998013e+01  -4.9925143102623268e+00  -5.7300370322499754e+00  -4.7863304652541538e+00  -1.1067441228689125e+00  -2.0478814493141777e+00  -9.5538238436328982e-01  -1.8550915503596086e+00  -6.4523614045260045e+00  -6.5210108576752992e+00  -1.8054867231948972e+01  -1.7762210593006223e+01  -1.8953428672570119e+01  -2.2518833647685110e+01  -2.1907594941782442e+01  -2.1804885571582442e+01  -2.9998628487430192e+01  -2.8320493641089250e+01  -2.8906804249458130e+01  -2.8640258607058140e+01  -2.4739879346852472e+01  -2.4771423009678191e+01  -2.4340038501166386e+01  -2.4235289550640804e+01  -2.4986185577529955e+01  -2.4600886850632232e+01  -1.6996598011626400e+01  -1.8536909587555972e+01  -1.7485701073152477e+01  -2.2368621608630999e+01  -2.2604136192053502e+01  -2.7398232976700001e+01  -2.6537582941040633e+01  -2.6417277364662603e+01  -1.6790971534576386e+01  -1.5486487536479650e+01  -1.5457164601385871e+01  -1.6311757076690068e+01  -1.6871202497455368e+01  -1.4825928041384049e+01  -1.2096596560083327e+01  -1.3406982486528275e+01  -1.3601518274231486e+01  -9.8644352405810363e+00  -7.9609274877723148e+00  -1.0488705924292487e+01  -2.7609887653936454e+01  -2.7455774509385751e+01  -2.7642380208760837e+01  -1.3699185108715926e+00  -1.1444042249879509e+00  -2.1621537919728757e+00  -2.7343674908234018e+01  -2.7191802119832573e+01  -2.7370364476837850e+01  -1.2734407354126891e+01  -9.8724336309355021e+00  -1.1838796967030422e+01  0.0000000000000000e+00  0.0000000000000000e+00  -8.1197603636687354e-01  -1.1602977837285289e+01  -1.2235507927858325e+01  -1.1467542636525669e+01  -1.1547539617290330e+01  -1.0603492460461483e+01  -7.7829919567297061e+00  -9.1535367654585738e+00  -8.4346557283473853e+00  -9.9724940463561591e+00  -1.0791886718399105e+01  -9.6571778088942466e+00  -2.6313139580781925e+01  -2.6443236165604532e+01  -2.6136715604495478e+01  -2.4257727930890066e+01  -2.4131314577351425e+01  -2.3804680793496669e+01  -1.9664420681346162e+01  -2.1123967762294836e+01  -2.0828506038340709e+01  -2.9075156691028436e+01  -2.8743116594245922e+01  -2.9283627026455854e+01  0.0000000000000000e+00  -1.1758112885048901e+00  -4.2768252240945195e+00  -5.1186754502784728e+00  -4.1244207676287665e+00  -3.3702323138443528e+00  -2.1025825062766996e+00  -2.8247004051870497e+00  -5.3412095867151486e+00  -6.3276306573739607e+00  -5.4567829343477667e+00  -1.7676401580383636e+00  -2.5125062801668867e+00  -1.1073984133240204e+00  -4.2847850011053543e+00  -8.3847938722919206e+00  -7.4863224528904393e+00  -7.5959090916140664e+00  -9.4641944654492285e+00  -1.0291911740085592e+01  -9.7217684762016638e+00  -6.8197623082800503e+00  -6.5448555768559835e+00  -7.8438864728724340e+00  -1.0230570334537674e+01  -9.4589967400674020e+00  -9.6352443086908188e+00  -1.0413740843516447e+01  -2.3907687148302813e+01  -2.3357200563111032e+01  -2.3285311231267798e+01  -6.0194358213096288e+00  -6.7551345317888858e+00  -5.4850415579027860e+00  -6.6615685267312941e+00  -5.2629457969680340e+00  -6.0420111003391082e+00  -2.9675204708748051e+01  -3.0139205705803608e+01  -3.0210260281882437e+01  -3.0129728532805760e+01  -2.9109251994277344e+01  -2.9887804243372408e+01  -2.6832969100428475e+01  -2.0495527839415637e+01  -1.9264295353814486e+01  -1.8119922820903273e+01  -2.6243770215985062e+01  -2.7012595240977600e+01  -2.7204850761723659e+01  -2.7884312892173494e+01  -2.6739830922148915e+01  -2.7017349041704648e+01  -2.6885558299829299e+01  -2.6162895952666769e+01  -2.5543109680883671e+01  -2.7067837706673224e+01  -3.3625424010825043e+01  -3.3930651536699166e+01  -1.7153707104392385e+01  -1.5937746041450557e+01  -1.6646847941245074e+01  -1.2316598463838256e+01  -1.1307441424265292e+01  -1.2235511841077605e+01  -2.6336120852329923e+01  -2.6528990648967458e+01  -2.6878661958029735e+01  -1.8944946618041001e+01  -2.6683972031834973e+01  -2.7355935236837443e+01  -2.9910871528399465e+01  -3.0891547278033727e+01  -3.0121174535457389e+01  -2.4650802528285119e+01  -2.5702846347492390e+01  -2.5377890979363769e+01  -2.4971785394385215e+01  -2.5759124014062287e+01  -2.7313980159200781e+01  -2.7309546156326380e+01  -2.7382064529233261e+01  -2.7733213003120341e+01  -2.7338093137585400e+01  -2.7108881382911068e+01  -2.6682764746018414e+01  -2.6725087627343601e+01  -2.7338377407014207e+01  -2.1693904334372284e+01  -2.2375168767256632e+01  -2.1424110727687733e+01  -1.7935843309717992e+01  -6.6504149139192288e+00  -8.2144247165429700e+00  -4.8938202674100584e+00  -1.2592909631639136e+01  -4.6394736878302139e+00  -3.6829140051874814e+00  -5.6693250098266779e+00  -1.1280184874554887e+01  -9.6991137676004797e+00  -1.0792986629847576e+01  -1.2483810195086956e+01  -2.8704359198268708e+01  -2.9374920509692153e+01  -2.9214266797712220e+01  -2.7638594121978706e+01  -2.7725739236648995e+01  -2.6818375827906600e+01  -3.1737680226115796e+01  -4.2302018575386828e+00  -4.8491613319945133e+00  -1.0965700667592564e+01  -1.0955972774225728e+01  -2.1606146059171039e+01  -2.0912213717108198e+01  -2.1461959979878973e+01  -2.3047959659675247e+01  -2.2925957483839721e+01  -2.2197619110310839e+01  -2.2594287996777343e+01  -2.1808140761488914e+01  -2.1942858441172181e+01  -2.4604317055391039e+01  -2.6235520337900727e+01  -2.6592804226800340e+01  -2.5924799696155453e+01  -2.3488242053432987e+01  -2.3752447581150633e+01  -2.8448408660568493e+01  -2.8587082883197038e+01  -2.7977511487453473e+01  -2.7778852917373690e+01  -2.7368927364280047e+01  -2.7240460963267761e+01  -5.9630347861738180e+00  -2.9753609423477045e+00  -2.9915160260570197e+01  -2.9094967755417716e+01  -2.7990118694645613e+01  -2.5829494219592299e+01  -2.6305439929803761e+01  -2.6802353726514532e+01  -2.5625686102025306e+01  -2.5681691879619112e+01  -2.4910518672386022e+01  -2.4859467787200522e+01  -2.0212901975585243e+01  -2.0887821013402036e+01  -2.0085478354982758e+01  -1.9803868406514212e+01  -2.0618439513574216e+01  -1.2841356057865150e+01  -1.4544368371110485e+01  -1.5023114973863864e+01  -6.6525529500235017e+00  -6.1348287150452370e+00  -7.2293357259038373e+00  -5.4654703626275412e+00  -6.0184913072158199e+00  -4.0798718476588816e+00  -4.1126500030219333e+00  -4.9032441883758011e+00  -6.6619358755441516e+00  -5.6969151202631849e+00  -6.9346019220553199e+00  -2.7861195734008614e+01  -2.8132317765117822e+01  -2.5640492702858293e+01  -2.5589503956677401e+01  -2.5585167306303767e+01  -2.5564893105147668e+01  -2.6154451495298325e+01  -2.5797044272011526e+01  -2.6911696038519583e+01  -1.4193924965958887e+01  -1.4064056131305575e+01  -1.2692649070300412e+01  -2.7039209295725488e+01  -2.6008704998672172e+01  -3.1663181722392007e+01  -3.0812555704134937e+01  -3.1035441603920169e+01  -1.4506442270822914e+01  -1.5527345421633246e+01  -1.6632694385304042e+01  -2.0333027955466253e+01  -1.5175010013345922e+01  -1.5472758859597757e+01  -1.5388891205510541e+01  -2.7271541008158476e+01  -2.7257869947028784e+01  -2.7333827498186196e+01  -2.7097114007987631e+01  -2.8092644008434647e+01  -2.7860784503803458e+01  -2.8175060623160643e+01  -3.0270392315645804e+01  -3.0773660759124425e+01  -2.7242279209251397e+01  -2.7267416017389849e+01  -2.7749498077034772e+01  -2.7690876566855547e+01  -2.9071833758603556e+00  -3.8528152812439331e+00  -2.0996721060167274e+00  -1.4612165171405099e+01  -1.4140747012801441e+01  -1.3749353706891414e+01  -1.1360378028695866e+01  -1.0402436992923407e+01  -2.8293373999851401e+01  -2.7721890462802140e+01  -2.8124876076617017e+01  -2.8257993480912230e+01  -2.7626381366875364e+01  -2.8995832364584203e+01  -2.8502094184093313e+01  -1.7076191426256294e+01  -1.5442381429354453e+01  -1.5197867196756908e+01  -2.6356852117648987e+01  -2.6415050983961269e+01  -2.6489830490311906e+01  -2.6365245145296011e+01  -1.1154434179909483e+01  -1.0442858049339279e+01  -3.5022996858248874e+01  -3.4079056843403976e+01  -3.8164913387950947e+00  -2.7965393235804288e+00  -3.3308977200998520e+00  -3.9225654010704027e+00  -2.5126431271014034e+00  -1.3985140540201142e+00  -1.3484784983073494e+00  -1.3658102020655582e+01  -1.4856830164047512e+01  -1.4180489413803580e+01  -1.2817803159513424e+01  -3.2309686964354093e+01  -3.2724432128903594e+01  -3.1921351122789744e+01  -3.3066726532181406e+01  -3.2405438031048419e+01  -4.5942002074704105e+00  -3.7371160211265937e+00  -3.5688321825576850e+00  -1.9254518674255078e+01  -1.9292497448774363e+01  -1.8671055271658830e+01  -1.7593072920624483e+01  -1.8276858264252475e+01  -1.7605802769126260e+01  -8.2666980089651005e+00  -9.3092170328217261e+00  -9.0714589093689497e+00  -9.5132309229237499e+00  -8.3749311326374549e+00  -3.3102435588891247e+01  -3.3146135954003249e+01  -1.6179998052114403e+01  -1.4936247732643450e+01  -9.4419162016617453e-01  -1.8132403817210718e+00  -1.9126217065753004e+01  -1.8605906837580644e+01  -1.7786795764979242e+01  -2.9480301121175781e+01  -2.9864693445036266e+01  -2.9912374594980008e+01  -1.6378978154710033e+01  -1.6496063551461535e+01  -2.1835768188436806e+01  -2.1185208350678071e+01  -2.2020166182083852e+01  -2.2412757343605620e+01  -2.1710347976420792e+01  -2.1810704442631454e+01  -2.3593590580339086e+01  -2.2986473511966544e+01  -2.2346691299398294e+01  -1.9525041106770544e+01  -1.8584668939087404e+01  -1.4867007790528538e+01  -2.1763825750097926e+01  -2.3105390374891385e+01  -2.2357464033094640e+01  -2.3578500958625295e+01  -2.4820225201313800e+01  -2.4777202501385151e+01  -2.4009398044469666e+01  -2.3101235731366422e+01  -1.7899349793469440e+01  -1.9563925930759531e+01  -2.5037661271563103e+01  -2.4502964518486340e+01  -2.4335160970125976e+01  -2.3252079791529230e+01  -2.3525555663028129e+01  -3.8577306567936316e+00  -5.1029512049392727e+00  -1.6434532457462325e+01  -1.7130098235061521e+01  -2.8359210030710123e+01  -2.8739994478694701e+01  -2.8367517197254696e+01  -2.9224066731332726e+01  -2.9622893317336164e+01  -2.9580211695491396e+01  -9.4837802263685766e+00  -1.0069387561665531e+01  -1.2327281221119746e+01  -1.1582669905740831e+01  -1.1424440216725786e+01  -8.3871255952663066e+00  -3.2689648785899710e+00  -1.3239071906233658e+01  -1.2187878975005043e+01  -1.2472935862939968e+01  -5.1835121470343877e+00  -4.7101005634292159e+00  -3.6373389928193194e+00  -2.5016874631218835e+00  -1.5156027943814296e+00  -7.8611990411040704e+00  -8.5189225040792529e+00  -4.1192432187521222e+00  -4.9569899059434857e+00  -3.2112106143231571e+01  -3.2686271717854893e+01  -1.1196702097591558e+01  -1.0912247952526789e+01  -9.3607774923718683e+00  -3.9166874087851489e+00  -3.2332516413628549e+00  -1.1716621723887284e+01  -1.1171706350488302e+01  -1.1908819650307189e+01  -1.1671821151462147e+01  -1.2792971884493420e+01  -1.1259426436311861e+01  -9.5939331295359818e+00  -2.4103779399983316e+00  -5.8822542339085278e+00  -5.8012114011222495e+00  -1.0007545508151839e+01  -1.0559948044758