<?xml version="1.0"?>
<VTKFile type="UnstructuredGrid"  version="0.1"  >
<UnstructuredGrid>
<Piece  NumberOfPoints="4167" NumberOfCells="7969">
<Points>
<DataArray  type="Float64"  NumberOfComponents="3"  format="ascii">0.00035 0.002 0  0.00035 0 0  0.0005999999999999999 0 0  0.0007 0 0  0.0007 0.0005 0  0.0006000000000000001 0.0005 0  0.0006000000000000001 0.0015 0  0.0007 0.0015 0  0.0007 0.002 0  0.0006000000000000001 0.002 0  0.00025 0.002 0  0.00025 0 0  -0.0001 0.0005 0  -0.0001 0 0  0 0 0  0 0.002 0  -0.0001 0.002 0  -0.0001 0.0015 0  0 0.0015 0  0 0.0005 0  0.00025 0.001 0  0.00035 0.001 0  0 0.001 0  0.00025 0.0005 0  0.00025 0.0015 0  0.0006000000000000001 0.001 0  0.00035 0.0015 0  0.00035 0.0005 0  0.0006000000000000001 0.00075 0  0.00035 0.00075 0  0.00025 0.00075 0  0 0.00075 0  0.00035 0.00125 0  0.0006000000000000001 0.00125 0  0.00025 0.00125 0  0 0.00125 0  0.00035 0.00175 0  0.0007 0.00175 0  0.00025 0.00175 0  0.00035 0.00025 0  0.0007 0.00025 0  0.00025 0.00025 0  -0.0001 0.00025 0  -0.0001 0.00175 0  0.000525 0.001825 0  0.0004750000000000001 0.001375 0  0.000525 0.0003250000000000001 0  0.0006000000000000001 0.000625 0  0.0006000000000000001 0.000875 0  0.0004750000000000001 0.001125 0  0.0004750000000000001 0.001625 0  0.00025 0.000125 0  0.000125 0 0  0.00035 0.000125 0  7.171052631578948e-05 0.0001782894736842105 0  0.000125 0.001625 0  7.500000000000001e-05 0.001825 0  0.000125 0.001125 0  0.000125 0.001375 0  0.00025 0.000375 0  0.00035 0.000375 0  0 0.000625 0  0.00025 0.000625 0  0.00035 0.000625 0  0 0.000875 0  0.00025 0.000875 0  0.00035 0.000875 0  0.0005585365853658535 0.0001615853658536586 0  8.083550360365815e-05 0.0003491710072073163 0  0.0004750000000000001 0.0005625000000000001 0  0.0004750000000000001 0.0008125000000000001 0  0.000125 0.0006875 0  0.000125 0.0009375 0  -0.0001 0.001625 0  -0.0001 0.001875 0  0.00025 0.001875 0  0.00035 0.001875 0  0.00025 0.001625 0  0.00035 0.001625 0  0.00025 0.001375 0  0.00035 0.001375 0  0.00025 0.001125 0  0.00035 0.001125 0  0.0007 0.001625 0  0.0007 0.000375 0  0.0007 0.001875 0  0.0004749999999999999 0 0  2.258064516129028e-05 0.001705645161290323 0  0.0005875 0.0016875 0  0.000475 0.0015 0  0.000475 0.001 0  0.0004750000000000001 0.002 0  -0.0001 0.000375 0  0.0007 0.000125 0  0.000125 0.002 0  0.000125 0.0015 0  0 0.001125 0  0 0.001375 0  -0.0001 0.000125 0  0.0006000000000000001 0.001125 0  0.0006000000000000001 0.001375 0  0.000125 0.0004699166332653581 0  0.000459375 0.0006875000000000001 0  0.000109375 0.0008125 0  0.0001249999999999999 0.00125 0  0.0004749999999999999 0.00125 0  0.000462 0.0004357500000000001 0  0.000463343680166346 0.0002271980796118594 0  0.0001012708416836604 0.0005787083166326791 0  0.0004600928285402256 0.0001100928285402256 0  2.352032115958506e-05 0.001601479678840415 0  8.084061298526868e-06 0.0002673714920228849 0  0.00014 0.001735 0  0.00046 0.001735 0  0.0001423300514357823 0.000260202832041119 0  8.868857225937936e-07 0.000103209508578075 0  0.0005991279069767442 0.001896802325581395 0  0.0006232142857142858 0.0003125 0  6.25e-05 0.001923214285714286 0  0.0001525644468313641 0.001884774436090226 0  -2.321428571428567e-05 0.0018125 0  0.0006094758064516129 0.001780443548387097 0  0.0005553560054962818 0.0004155617119301649 0  0.0006096153846153846 0.001594807692307692 0  9.375000000000003e-05 0.00103125 0  0.00044375 0.00090625 0  0.000428257870530037 0.0003176525468551296 0  9.277341733369355e-05 8.747636225996398e-05 0  0.0001658908968433261 0.0001684923507773139 0  -1.031095433534538e-05 0.0003569836422050074 0  0.0005094645754461872 0.001915204164413196 0  0.0004303289473684211 0.001824901315789474 0  -3.4516850242847e-05 0.0001875 0  0.0005375 6.451851259412335e-05 0  0.00035 0.0019375 0  0.0006000000000000001 0.0010625 0  0.00025 0.0010625 0  0.00025 0.0015625 0  0.0006000000000000001 0.0014375 0  0.00035 0.0015625 0  0.00035 0.0014375 0  0.00035 0.0010625 0  0.0005296875 0.0009296875000000001 0  0.0001875 0 0  0.00025 6.25e-05 0  0 0.0014375 0  0.0005375 0.0013125 0  0.0001874999999999999 0.0011875 0  0.0005375 0.0011875 0  0.0001875 0.0013125 0  0.00025 0.0014375 0  0.0004124999999999999 0.0013125 0  0.0004124999999999999 0.0011875 0  6.25e-05 0.0011875 0  6.249999999999995e-05 0.0013125 0  0.0006225974464271294 8.442204285829641e-05 0  0.0001614398321064744 0.0003881385048713025 0  4.90886636940413e-05 0.0004292326043800543 0  -2.396047756278307e-05 0.001916668382050226 0  0.0001747921939569763 0.0005377607761907973 0  0.0007 0.0001875 0  0.0006166376306620209 0.0002260017421602787 0  0.0001862682511294904 0.001806532825050403 0  0.0005316756868131867 0.0015625 0  0.0004271039459170623 0.001907553620556912 0  -0.0001 0.0015625 0  -0.0001 0.0004375 0  0.00035 0.0008125000000000001 0  0.00025 0.0008125000000000001 0  0.00035 0.0009375 0  0.00025 0.0009375 0  0.00035 0.0005625000000000001 0  0.00025 0.0005625000000000001 0  0.00035 0.0006875 0  0.00025 0.0006875 0  0.00035 0.0003125 0  0.00025 0.0003125 0  0.00035 0.0004375 0  0.00025 0.0004375 0  0.00035 0.0001875 0  0.00025 0.0001875 0  0.0006364854302060047 0.0004266883441648037 0  0.00025 0.0011875 0  0.00035 0.0011875 0  0.00035 0.0013125 0  0.00025 0.0013125 0  0.00025 0.0016875 0  0.00035 0.0016875 0  0.00035 0.0018125 0  0.00025 0.0018125 0  0.000175 0.00103125 0  0.0001718836384266996 7.811636157330036e-05 0  0.000170863762392675 0.000617184876348013 0  0.0004125 0 0  0.0005186580882352941 0.0006314338235294118 0  0.0006000000000000001 0.0005625000000000001 0  0.0001796875 0.0008437500000000001 0  0.0001686580882352941 0.0007564338235294117 0  0.0005346093920839712 0.000707675742811065 0  0.0005401507438007825 0.0002471130037243983 0  0.0005219919419805503 0.0004872230467966391 0  0.0005373068669527896 0.001747639484978541 0  0.0001875 0.002 0  -3.065400090072572e-05 0.001653077952336845 0  -0.0001 6.25e-05 0  0.0007 0.0019375 0  8.602032115958517e-05 0.0015625 0  -2.542668305846666e-05 0.0004299533006247411 0  0.0006298833174178299 0.000155644031799536 0  0.00025 0.0019375 0  0.0004125 0.00078125 0  0.000428125 0.0014375 0  0.0004125 0.00159375 0  0.000521875 0.0014375 0  0.0001874999999999999 0.00153125 0  0.0004281250000000001 0.0010625 0  0.0005375 0.00103125 0  0.0004264037162162162 0.0005034425675675677 0  0.00041640625 0.0016640625 0  0.0004125 0.00059375 0  0.000171875 0.0014375 0  7.812499999999999e-05 0.0014375 0  6.250000000000001e-05 0.0009687500000000001 0  0 0.0006875 0  0.0005357047534443299 0.0007776595068886598 0  7.552083333333334e-05 0.0007447916666666666 0  0.0001787804878048781 0.001673689024390244 0  0.00035 6.25e-05 0  6.25e-05 0.0006562499999999999 0  0.000530366847826087 0.0008580163043478262 0  7.552083333333334e-05 0.0008802083333333333 0  -0.0001 0.0003125 0  0.0005077809927346602 0.001685492862645636 0  0.0005495816794298127 0.001629468697853108 0  2.317897057317438e-05 0.001868307193657365 0  0.0004102870915806489 0.00015625 0  7.433339707377037e-05 0.0002474263279038245 0  0 0.0010625 0  6.250000000000003e-05 0.00109375 0  0.0004125 0.00096875 0  0.0007 0.0015625 0  0.00065 0.0015 0  0.0006400321018429189 0.001841800462511068 0  8.991935483870963e-05 0.001685806451612903 0  3.17396313364056e-05 0.001772811059907834 0  -4.224426673561763e-05 0.001718054261080217 0  -3.154563493718846e-05 0.001560776984100498 0  0.000179822472480468 0.0003199976331133251 0  0.0001914008058672966 0.00046875 0  0.0004110795454545454 0.0008480113636363637 0  0.000640987269772481 0.001651277085590466 0  0.0006408592267552181 0.001723953391840608 0  6.422944350782566e-05 0.0004921443620106809 0  0 0.0005625000000000001 0  6.25e-05 0 0  0.0004730286832240319 0.0003687299168678467 0  0.000405525390625 0.00040625 0  0 0.0008125000000000001 0  0.0004046875 0.00071875 0  0.0004786567701071989 0.0007485663412366002 0  0.0004045614919354839 0.0006559979838709677 0  0.0004688764171791908 0.0015625 0  0.000412001954618033 0.001526373696921311 0  -0.0001 0.0019375 0  0.0005375 0.001500271380992785 0  0.0004125 0.001125 0  0.0004125 0.001375 0  0.0004125 0.002 0  6.250000000000001e-05 0.001498046875 0  0 0.0009375 0  0.0001875 0.001376953125 0  0.0005375 0.001376953125 0  0.0006000000000000001 0.0006875 0  0.0001875 0.0006962086397058823 0  0.0005375000000000001 0.0005712086397058824 0  0.0001875 0.0009643750000000001 0  0.0007 0.0004375 0  0.0007 6.25e-05 0  0.0005375 0.001125 0  0.0001875 0.001125 0  0.0006000000000000001 0.0008125000000000001 0  0.0006000000000000001 0.0009375 0  0.0005375 0 0  -0.0001 0.0001875 0  0.0005375 0.002 0  0.0001875 0.001610011005773019 0  6.25e-05 0.002 0  0.0007 0.0003125 0  6.250000000000001e-05 0.001375 0  0 0.0013125 0  6.249999999999995e-05 0.00125 0  0 0.0011875 0  0.0001249999999999999 0.0011875 0  0.0004749999999999999 0.0011875 0  0.0004749999999999999 0.0013125 0  0.0001249999999999999 0.0013125 0  0.0001874999999999998 0.00125 0  0.0006000000000000001 0.0013125 0  -0.0001 0.0016875 0  -0.0001 0.0018125 0  0.0006000000000000001 0.0011875 0  0.0007 0.0016875 0  0.0007 0.0018125 0  0.0004124999999999998 0.00125 0  0.0005375000000000002 0.00125 0  0.0005790090285699461 0.0003572648163148829 0  0.0001762003456029314 0.0009045413474350434 0  0.00015625 0.001946565887973755 0  4.021185564848414e-05 5.66900022254915e-05 0  0.0005622550935985422 0.001944782914067757 0  0.000403389457760924 0.0002167207095631116 0  0.0004723203698732528 0.001867928844996247 0  0.00044375 5.182424955370009e-05 0  0.0001067627604416744 0.0004127824842803355 0  0.0004019885525321411 9.496341460940233e-05 0  0.00065 0 0  0.0003 0.00190625 0  0.0003 0.00165625 0  0.0003 0.00053125 0  0.0003 0.00096875 0  0.0003 0.00071875 0  0.0003 0.00078125 0  0.0003 0.00134375 0  0.0003 0.00140625 0  0.0003 0.00103125 0  0.0003 0.00109375 0  0.0003 0.00146875 0  0.0003 0.00153125 0  0.0003 0.00159375 0  0.0003 0.002 0  0.0003 0.00115625 0  0.0003 0.00184375 0  -3.707677011788736e-05 5.192716781138022e-05 0  0.0003 9.375e-05 0  0.0003
[...]
<PointData  Scalars="f_75"> 
<DataArray  type="Float64"  Name="f_75"  format="ascii">0.0000000000000000e+00  0.0000000000000000e+00  0.0000000000000000e+00  0.0000000000000000e+00  0.0000000000000000e+00  0.0000000000000000e+00  0.0000000000000000e+00  0.0000000000000000e+00  0.0000000000000000e+00  0.0000000000000000e+00  0.0000000000000000e+00  0.0000000000000000e+00  0.0000000000000000e+00  0.0000000000000000e+00  0.0000000000000000e+00  0.0000000000000000e+00  0.0000000000000000e+00  0.0000000000000000e+00  0.0000000000000000e+00  0.0000000000000000e+00  0.0000000000000000e+00  0.0000000000000000e+00  0.0000000000000000e+00  0.0000000000000000e+00  0.0000000000000000e+00  0.0000000000000000e+00  0.0000000000000000e+00  0.0000000000000000e+00  0.0000000000000000e+00  0.0000000000000000e+00  0.0000000000000000e+00  0.0000000000000000e+00  0.0000000000000000e+00  0.0000000000000000e+00  0.0000000000000000e+00  0.0000000000000000e+00  0.0000000000000000e+00  0.0000000000000000e+00  0.0000000000000000e+00  0.0000000000000000e+00  0.0000000000000000e+00  0.0000000000000000e+00  0.0000000000000000e+00  0.0000000000000000e+00  0.0000000000000000e+00  0.0000000000000000e+00  0.0000000000000000e+00  0.0000000000000000e+00  0.0000000000000000e+00  0.0000000000000000e+00  0.0000000000000000e+00  0.0000000000000000e+00  0.0000000000000000e+00  0.0000000000000000e+00  0.0000000000000000e+00  0.0000000000000000e+00  0.0000000000000000e+00  0.0000000000000000e+00  0.0000000000000000e+00  0.0000000000000000e+00  0.0000000000000000e+00  0.0000000000000000e+00  0.0000000000000000e+00  0.0000000000000000e+00  0.0000000000000000e+00  0.0000000000000000e+00  0.0000000000000000e+00  0.0000000000000000e+00  0.0000000000000000e+00  0.0000000000000000e+00  0.0000000000000000e+00  0.0000000000000000e+00  0.0000000000000000e+00  0.0000000000000000e+00  0.0000000000000000e+00  0.0000000000000000e+00  0.0000000000000000e+00  0.0000000000000000e+00  0.0000000000000000e+00  0.0000000000000000e+00  0.0000000000000000e+00  0.0000000000000000e+00  0.0000000000000000e+00  0.0000000000000000e+00  0.0000000000000000e+00  0.0000000000000000e+00  0.0000000000000000e+00  0.0000000000000000e+00  0.0000000000000000e+00  0.0000000000000000e+00  0.0000000000000000e+00  0.0000000000000000e+00  0.0000000000000000e+00  0.0000000000000000e+00  0.0000000000000000e+00  0.0000000000000000e+00  0.0000000000000000e+00  0.0000000000000000e+00  0.0000000000000000e+00  0.0000000000000000e+00  0.0000000000000000e+00  0.0000000000000000e+00  0.0000000000000000e+00  0.0000000000000000e+00  0.0000000000000000e+00  0.0000000000000000e+00  0.0000000000000000e+00  0.0000000000000000e+00  0.0000000000000000e+00  0.0000000000000000e+00  0.0000000000000000e+00  0.0000000000000000e+00  0.0000000000000000e+00  0.0000000000000000e+00  0.0000000000000000e+00  0.0000000000000000e+00  0.0000000000000000e+00  0.0000000000000000e+00  0.0000000000000000e+00  0.0000000000000000e+00  0.0000000000000000e+00  0.0000000000000000e+00  0.0000000000000000e+00  0.0000000000000000e+00  0.0000000000000000e+00  0.0000000000000000e+00  0.0000000000000000e+00  0.0000000000000000e+00  0.0000000000000000e+00  0.0000000000000000e+00  0.0000000000000000e+00  0.0000000000000000e+00  0.0000000000000000e+00  0.0000000000000000e+00  0.0000000000000000e+00  0.0000000000000000e+00  0.0000000000000000e+00  0.0000000000000000e+00  0.0000000000000000e+00  0.0000000000000000e+00  0.0000000000000000e+00  0.0000000000000000e+00  0.0000000000000000e+00  0.0000000000000000e+00  0.0000000000000000e+00  0.0000000000000000e+00  0.0000000000000000e+00  0.0000000000000000e+00  0.0000000000000000e+00  0.0000000000000000e+00  0.0000000000000000e+00  0.0000000000000000e+00  0.0000000000000000e+00  0.0000000000000000e+00  0.0000000000000000e+00  0.0000000000000000e+00  0.0000000000000000e+00  0.0000000000000000e+00  0.0000000000000000e+00  0.0000000000000000e+00  0.0000000000000000e+00  0.0000000000000000e+00  0.0000000000000000e+00  0.0000000000000000e+00  0.0000000000000000e+00  0.0000000000000000e+00  0.0000000000000000e+00  0.0000000000000000e+00  0.0000000000000000e+00  0.0000000000000000e+00  0.0000000000000000e+00  0.0000000000000000e+00  0.0000000000000000e+00  0.0000000000000000e+00  0.0000000000000000e+00  0.0000000000000000e+00  0.0000000000000000e+00  0.0000000000000000e+00  0.0000000000000000e+00  0.0000000000000000e+00  0.0000000000000000e+00  0.0000000000000000e+00  0.0000000000000000e+00  0.0000000000000000e+00  0.0000000000000000e+00  0.0000000000000000e+00  0.0000000000000000e+00  0.0000000000000000e+00  0.0000000000000000e+00  0.0000000000000000e+00  0.0000000000000000e+00  0.0000000000000000e+00  0.0000000000000000e+00  0.0000000000000000e+00  0.0000000000000000e+00  0.0000000000000000e+00  0.0000000000000000e+00  0.0000000000000000e+00  0.0000000000000000e+00  0.0000000000000000e+00  0.0000000000000000e+00  0.0000000000000000e+00  0.0000000000000000e+00  0.0000000000000000e+00  0.0000000000000000e+00  0.0000000000000000e+00  0.0000000000000000e+00  0.0000000000000000e+00  0.0000000000000000e+00  0.0000000000000000e+00  0.0000000000000000e+00  0.0000000000000000e+00  0.0000000000000000e+00  0.0000000000000000e+00  0.0000000000000000e+00  0.0000000000000000e+00  0.0000000000000000e+00  0.0000000000000000e+00  0.0000000000000000e+00  0.0000000000000000e+00  0.0000000000000000e+00  0.0000000000000000e+00  0.0000000000000000e+00  0.0000000000000000e+00  0.0000000000000000e+00  0.0000000000000000e+00  0.0000000000000000e+00  0.0000000000000000e+00  0.0000000000000000e+00  0.0000000000000000e+00  0.0000000000000000e+00  0.0000000000000000e+00  0.0000000000000000e+00  0.0000000000000000e+00  0.0000000000000000e+00  0.0000000000000000e+00  0.0000000000000000e+00  0.0000000000000000e+00  0.0000000000000000e+00  0.0000000000000000e+00  0.0000000000000000e+00  0.0000000000000000e+00  0.0000000000000000e+00  0.0000000000000000e+00  0.0000000000000000e+00  0.0000000000000000e+00  0.0000000000000000e+00  0.0000000000000000e+00  0.0000000000000000e+00  0.0000000000000000e+00  0.0000000000000000e+00  0.0000000000000000e+00  0.0000000000000000e+00  0.0000000000000000e+00  0.0000000000000000e+00  0.0000000000000000e+00  0.0000000000000000e+00  0.0000000000000000e+00  0.0000000000000000e+00  0.0000000000000000e+00  0.0000000000000000e+00  0.0000000000000000e+00  0.0000000000000000e+00  0.0000000000000000e+00  0.0000000000000000e+00  0.0000000000000000e+00  0.0000000000000000e+00  0.0000000000000000e+00  0.0000000000000000e+00  0.0000000000000000e+00  0.0000000000000000e+00  0.0000000000000000e+00  0.0000000000000000e+00  0.0000000000000000e+00  0.0000000000000000e+00  0.0000000000000000e+00  0.0000000000000000e+00  0.0000000000000000e+00  0.0000000000000000e+00  0.0000000000000000e+00  0.0000000000000000e+00  0.0000000000000000e+00  0.0000000000000000e+00  0.0000000000000000e+00  0.0000000000000000e+00  0.0000000000000000e+00  0.0000000000000000e+00  0.0000000000000000e+00  0.0000000000000000e+00  0.0000000000000000e+00  0.0000000000000000e+00  0.0000000000000000e+00  0.0000000000000000e+00  0.0000000000000000e+00  0.0000000000000000e+00  0.0000000000000000e+00  0.0000000000000000e+00  0.0000000000000000e+00  0.0000000000000000e+00  0.0000000000000000e+00  0.0000000000000000e+00  0.0000000000000000e+00  0.0000000000000000e+00  0.0000000000000000e+00  0.0000000000000000e+00  0.0000000000000000e+00  0.0000000000000000e+00  0.0000000000000000e+00  0.0000000000000000e+00  0.0000000000000000e+00  0.0000000000000000e+00  0.0000000000000000e+00  0.0000000000000000e+00  0.0000000000000000e+00  0.0000000000000000e+00  0.0000000000000000e+00  0.0000000000000000e+00  0.0000000000000000e+00  0.0000000000000000e+00  0.0000000000000000e+00  0.0000000000000000e+00  0.0000000000000000e+00  0.0000000000000000e+00  0.0000000000000000e+00  0.0000000000000000e+00  0.0000000000000000e+00  0.0000000000000000e+00  0.0000000000000000e+00  0.0000000000000000e+00  0.0000000000000000e+00  0.0000000000000000e+00  0.0000000000000000e+00  0.0000000000000000e+00  0.0000000000000000e+00  0.0000000000000000e+00  0.0000000000000000e+00  0.0000000000000000e+00  0.0000000000000000e+00  0.0000000000000000e+00  0.0000000000000000e+00  0.0000000000000000e+00  0.0000000000000000e+00  0.0000000000000000e+00  0.0000000000000000e+00  0.0000000000000000e+00  0.0000000000000000e+00  0.0000000000000000e+00  0.0000000000000000e+00  0.0000000000000000e+00  0.0000000000000000e+00  0.0000000000000000e+00  0.0000000000000000e+00  0.0000000000000000e+00  0.0000000000000000e+00  0.0000000000000000e+00  0.0000000000000000e+00  0.0000000000000000e+00  0.0000000000000000e+00  0.0000000000000000e+00  0.0000000000000000e+00  0.0000000000000000e+00  0.0000000000000000e+00  0.0000000000000000e+00  0.0000000000000000e+00  0.0000000000000000e+00  0.0000000000000000e+00  0.0000000000000000e+00  0.0000000000000000e+00  0.0000000000000000e+00  0.0000000000000000e+00  0.0000000000000000e+00  0.0000000000000000e+00  0.0000000000000000e+00  0.0000000000000000e+00  0.0000000000000000e+00  0.0000000000000000e+00  0.0000000000000000e+00  0.0000000000000000e+00  0.0000000000000000e+00  0.0000000000000000e+00  0.0000000000000000e+00  0.0000000000000000e+00  0.0000000000000000e+00  0.0000000000000000e+00  0.0000000000000000e+00  0.0000000000000000e+00  0.0000000000000000e+00  0.0000000000000000e+00  0.0000000000000000e+00  0.0000000000000000e+00  0.0000000000000000e+00  0.0000000000000000e+00  0.0000000000000000e+00  0.0000000000000000e+00  0.0000000000000000e+00  0.0000000000000000e+00  0.0000000000000000e+00  0.0000000000000000e+00  0.0000000000000000e+00  0.0000000000000000e+00  0.0000000000000000e+00  0.0000000000000000e+00  0.0000000000000000e+00  0.0000000000000000e+00  0.0000000000000000e+00  0.0000000000000000e+00  0.0000000000000000e+00  0.0000000000000000e+00  0.0000000000000000e+00  0.0000000000000000e+00  0.0000000000000000e+00  0.0000000000000000e+00  0.0000000000000000e+00  0.0000000000000000e+00  0.0000000000000000e+00  0.0000000000000000e+00  0.0000000000000000e+00  0.0000000000000000e+00  0.0000000000000000e+00  0.0000000000000000e+00  0.0000000000000000e+00  0.0000000000000000e+00  0.0000000000000000e+00  0.0000000000000000e+00  0.0000000000000000e+00  0.0000000000000000e+00  0.0000000000000000e+00  0.0000000000000000e+00  0.0000000000000000e+00  0.0000000000000000e+00  0.0000000000000000e+00  0.0000000000000000e+00  0.0000000000000000e+00  0.0000000000000000e+00  0.0000000000000000e+00  0.0000000000000000e+00  0.0000000000000000e+00  0.0000000000000000e+00  0.0000000000000000e+00  0.0000000000000000e+00  0.0000000000000000e+00  0.0000000000000000e+00  0.0000000000000000e+00  0.0000000000000000e+00  0.0000000000000000e+00  0.0000000000000000e+00  0.0000000000000000e+00  0.0000000000000000e+00  0.0000000000000000e+00  0.0000000000000000e+00  0.0000000000000000e+00  0.0000000000000000e+00  0.0000000000000000e+00  0.0000000000000000e+00  0.0000000000000000e+00  0.0000000000000000e+00  0.0000000000000000e+00  0.0000000000000000e+00  0.0000000000000000e+00  0.0000000000000000e+00  0.0000000000000000e+00  0.0000000000000000e+00  0.0000000000000000e+00  0.0000000000000000e+00  0.0000000000000000e+00  0.0000000000000000e+00  0.0000000000000000e+00  0.0000000000000000e+00  0.0000000000000000e+00  0.0000000000000000e+00  0.0000000000000000e+00  0.0000000000000000e+00  0.0000000000000000e+00  0.0000000000000000e+00  0.0000000000000000e+00  0.0000000000000000e+00  0.0000000000000000e+00  0.0000000000000000e+00  0.0000000000000000e+00  0.0000000000000000e+00  0.0000000000000000e+00  0.0000000000000000e+00  0.0000000000000000e+00  0.0000000000000000e+00  0.0000000000000000e+00  0.0000000000000000e+00  0.0000000000000000e+00  0.0000000000000000e+00  0.0000000000000000e+00  0.0000000000000000e+00  0.0000000000000000e+00  0.0000000000000000e+00  0.0000000000000000e+00  0.0000000000000000e+00  0.0000000000000000e+00  0.0000000000000000e+00  0.0000000000000000e+00  0.0000000000000000e+00  0.0000000000000000e+00  0.0000000000000000e+00  0.0000000000000000e+00  0.0000000000000000e+00  0.0000000000000000e+00  0.0000000000000000e+00  0.0000000000000000e+00  0.0000000000000000e+00  0.0000000000000000e+00  0.0000000000000000e+00  0.0000000000000000e+00  0.0000000000000000e+00  0.0000000000000000e+00  0.0000000000000000e+00  0.0000000000000000e+00  0.0000000000000000e+00  0.0000000000000000e+00  0.0000000000000000e+00  0.0000000000000000e+00  0.0000000000000000e+00  0.0000000000000000e+00  0.0000000000000000e+00  0.0000000000000000e+00  0.0000000000000000e+00  0.0000000000000000e+00  0.0000000000000000e+00  0.0000000000000000e+00  0.0000000000000000e+00  0.0000000000000000e+00  0.0000000000000000e+00  0.0000000000000000e+00  0.0000000000000000e+00  0.0000000000000000e+00  0.0000000000000000e+00  0.0000000000000000e+00  0.0000000000000000e+00  0.0000000000000000e+00  0.0000000000000000e+00  0.0000000000000000e+00  0.0000000000000000e+00  0.0000000000000000e+00  0.0000000000000000e+00  0.0000000000000000e+00  0.0000000000000000e+00  0.0000000000000000e+00  0.0000000000000000e+00  0.0000000000000000e+00  0.0000000000000000e+00  0.0000000000000000e+00  0.0000000000000000e+00  0.0000000000000000e+00  0.0000000000000000e+00  0.0000000000000000e+00  0.0000000000000000e+00  0.0000000000000000e+00  0.0000000000000000e+00  0.0000000000000000e+00  0.0000000000000000e+00  0.0000000000000000e+00  0.0000000000000000e+00  0.0000000000000000e+00  0.0000000000000000e+00  0.0000000000000000e+00  0.0000000000000000e+00  0.0000000000000000e+00  0.0000000000000000e+00  0.0000000000000000e+00  0.0000000000000000e+00  0.0000000000000000e+00  0.0000000000000000e+00  0.0000000000000000e+00  0.0000000000000000e+00  0.0000000000000000e+00  0.0000000000000000e+00  0.0000000000000000e+00  0.0000000000000000e+00  0.0000000000000000e+00  0.0000000000000000e+00  0.0000000000000000e+00  0.0000000000000000e+00  0.0000000000000000e+00  0.0000000000000000e+00  0.0000000000000000e+00  0.0000000000000000e+00  0.0000000000000000e+00  0.0000000000000000e+00  0.0000000000000000e+00  0.0000000000000000e+00  0.0000000000000000e+00  0.0000000000000000e+00  0.0000000000000000e+00  0.0000000000000000e+00  0.0000000000000000e+00  0.0000000000000000e+00  0.0000000000000000e+00  0.0000000000000000e+00  0.0000000000000000e+00  0.0000000000000000e+00  0.0000000000000000e+00  0.0000000000000000e+00  0.0000000000000000e+00  0.0000000000000000e+00  0.0000000000000000e+00  0.0000000000000000e+00  0.0000000000000000e+00  0.0000000000000000e+00  0.0000000000000000e+00  0.0000000000000000e+00  0.0000000000000000e+00  0.0000000000000000e+00  0.0000000000000000e+00  0.0000000000000000e+00  0.0000000000000000e+00  0.0000000000000000e+00  0.0000000000000000e+00  0.0000000000000000e+00  0.0000000000000000e+00  0.0000000000000000e+00  0.0000000000000000e+00  0.0000000000000000e+00  0.0000000000000000e+00  0.0000000000000000e+00  0.0000000000000000e+00  0.0000000000000000e+00  0.0000000000000000e+00  0.0000000000000000e+00  0.0000000000000000e+00  0.0000000000000000e+00  0.0000000000000000e+00  0.0000000000000000e+00  0.0000000000000000e+00  0.0000000000000000e+00  0.0000000000000000e+00  0.0000000000000000e+00  0.0000000000000000e+00  0.0000000000000000e+00  0.0000000000000000e+00  0.0000000000000000e+00  0.0000000000000000e+00  0.0000000000000000e+00  0.0000000000000000e+00  0.0000000000000000e+00  0.0000000000000000e+00  0.0000000000000000e+00  0.0000000000000000e+00  0.0000000000000000e+00  0.0000000000000000e+00  0.0000000000000000e+00  0.0000000000000000e+00  0.0000000000000000e+00  0.0000000000000000e+00  0.0000000000000000e+00  0.0000000000000000e+00  0.0000000000000000e+00  0.0000000000000000e+00  0.0000000000000000e+00  0.0000000000000000e+00  0.0000000000000000e+00  0.0000000000000000e+00  0.0000000000000000e+00  0.0000000000000000e+00  0.0000000000000000e+00  0.0000000000000000e+00  0.0000000000000000e+00  0.0000000000000000e+00  0.0000000000000000e+00  0.0000000000000000e+00  0.0000000000000000e+00  0.0000000000000000e+00  0.0000000000000000e+00  0.0000000000000000e+00  0.0000000000000000e+00  0.0000000000000000e+00  0.0000000000000000e+00  0.0000000000000000e+00  0.0000000000000000e+00  0.0000000000000000e+00  0.0000000000000000e+00  0.0000000000000000e+00  0.0000000000000000e+00  0.0000000000000000e+00  0.0000000000000000e+00  0.0000000000000000e+00  0.0000000000000000e+00  0.0000000000000000e+00  0.0000000000000000e+00  0.0000000000000000e+00  0.0000000000000000e+00  0.0000000000000000e+00  0.0000000000000000e+00  0.0000000000000000e+00  0.0000000000000000e+00  0.0000000000000000e+00  0.0000000000000000e+00  0.0000000000000000e+00  0.0000000000000000e+00  0.0000000000000000e+00  0.0000000000000000e+00  0.0000000000000000e+00  0.0000000000000000e+00  0.0000000000000000e+00  0.0000000000000000e+00  0.0000000000000000e+00  0.0000000000000000e+00  0.0000000000000000e+00  0.0000000000000000e+00  0.0000000000000000e+00  0.0000000000000000e+00  0.0000000000000000e+00  0.0000000000000000e+00  0.0000000000000000e+00  0.0000000000000000e+00  0.0000000000000000e+00  0.0000000000000000e+00  0.0000000000000000e+00  0.0000000000000000e+00  0.0000000000000000e+00  0.0000000000000000e+00  0.0000000000000000e+00  0.0000000000000000e+00  0.0000000000000000e+00  0.0000000000000000e+00  0.0000000000000000e+00  0.0000000000000000e+00  0.0000000000000000e+00  0.0000000000000000e+00  0.0000000000000000e+00  0.0000000000000000e+00  0.0000000000000000e+00  0.0000000000000000e+00  0.0000000000000000e+00  0.0000000000000000e+00  0.0000000000000000e+00  0.0000000000000000e+00  0.0000000000000000e+00  0.0000000000000000e+00  0.0000000000000000e+00  0.0000000000000000e+00  0.0000000000000000e+00  0.0000000000000000e+00  0.0000000000000000e+00  0.0000000000000000e+00  0.0000000000000000e+00  0.0000000000000000e+00  0.0000000000000000e+00  0.0000000000000000e+00  0.0000000000000000e+00  0.0000000000000000e+00  0.0000000000000000e+00  0.0000000000000000e+00  0.0000000000000000e+00  0.0000000000000000e+00  0.0000000000000000e+00  0.0000000000000000e+00  0.0000000000000000e+00  0.0000000000000000e+00  0.0000000000000000e+00  0.0000000000000000e+00  0.0000000000000000e+00  0.0000000000000000e+00  0.0000000000000000e+00  0.0000000000000000e+00  0.0000000000000000e+00  0.0000000000000000e+00  0.0000000000000000e+00  0.0000000000000000e+00  0.0000000000000000e+00  0.0000000000000000e+00  0.0000000000000000e+00  0.0000000000000000e+00  0.0000000000000000e+00  0.0000000000000000e+00  0.0000000000000000e+00  0.0000000000000000e+00  0.0000000000000000e+00  0.0000000000000000e+00  0.0000000000000000e+00  0.0000000000000000e+00  0.0000000000000000e+00  0.0000000000000000e+00  0.0000000000000000e+00  0.0000000000000000e+00  0.0000000000000000e+00  0.0000000000000000e+00  0.0000000000000000e+00  0.0000000000000000e+00  0.0000000000000000e+00  0.0000000000000000e+00  0.0000000000000000e+00  0.0000000000000000e+00  0.0000000000000000e+00  0.0000000000000000e+00  0.0000000000000000e+00  0.0000000000000000e+00  0.0000000000000000e+00  0.0000000000000000e+00  0.0000000000000000e+00  0.0000000000000000e+00  0.0000000000000000e+00  0.0000000000000000e+00  0.0000000000000000e+00  0.0000000000000000e+00  0.0000000000000000e+00  0.0000000000000000e+00  0.0000000000000000e+00  0.0000000000000000e+00  0.0000000000000000e+00  0.0000000000000000e+00  0.0000000000000000e+00  0.0000000000000000e+00  0.0000000000000000e+00  0.0000000000000000e+00  0.0000000000000000e+00  0.0000000000000000e+00  0.0000000000000000e+00  0.0000000000000000e+00  0.0000000000000000e+00  0.0000000000000000e+00  0.0000000000000000e+00  0.0000000000000000e+00  0.0000000000000000e+00  0.0000000000000000e+00  0.0000000000000000e+00  0.0000000000000000e+00  0.0000000000000000e+00  0.0000000000000000e+00  0.0000000000000000e+00  0.0000000000000000e+00  0.0000000000000000e+00  0.0000000000000000e+00  0.0000000000000000e+00  0.0000000000000000e