<?xml version="1.0"?>
<VTKFile type="UnstructuredGrid"  version="0.1"  >
<UnstructuredGrid>
<Piece  NumberOfPoints="2446" NumberOfCells="4585">
<Points>
<DataArray  type="Float64"  NumberOfComponents="3"  format="ascii">0 0.41 0  0 0 0  2.2 0 0  2.2 0.41 0  0.2404508497187474 0.2293892626146237 0  0.25 0.2 0  0.2404508497187474 0.1706107373853764 0  0.2154508497187474 0.1524471741852423 0  0.1845491502812526 0.1524471741852423 0  0.1595491502812526 0.1706107373853764 0  0.15 0.2 0  0.1595491502812526 0.2293892626146237 0  0.1845491502812527 0.2475528258147577 0  0.2154508497187474 0.2475528258147577 0  1.1 0 0  1.1 0.41 0  0 0.205 0  0.55 0 0  0.55 0.41 0  0.275 0 0  0.275 0.41 0  1.65 0.41 0  1.65 0 0  0.8250000000000001 0.41 0  0.8250000000000001 0 0  1.375 0 0  1.375 0.41 0  1.925 0 0  1.925 0.41 0  1.5125 0.205 0  1.7875 0.205 0  0.6875 0.205 0  0.9625000000000001 0.205 0  1.2375 0.205 0  2.2 0.205 0  0.4687002074688797 0.2068568464730291 0  1.99375 0.2152743902439024 0  2.0625 0 0  2.0625 0.41 0  2.2 0.3075 0  0.4125 0 0  0.4125 0.41 0  1.7875 0.41 0  1.375 0.1486128048780488 0  1.5125 0 0  1.7875 0 0  1.5125 0.41 0  0.8250000000000001 0.2613871951219511 0  0.9625000000000001 0.41 0  0.9625000000000001 0 0  0.6875 0.41 0  0.6875 0 0  0.1375 0 0  0.1375 0.41 0  1.2375 0 0  1.1 0.1486128048780487 0  1.2375 0.41 0  1.65 0.1486128048780487 0  1.126715909090909 0.2793064024390244 0  1.676715909090909 0.2793064024390244 0  0.8517159090909092 0.1306935975609756 0  1.348284090909091 0.2793064024390244 0  0.34375 0.3032389320646208 0  1.894702181800738 0.1282910975492754 0  2.092797818199262 0.1282910975492754 0  1.85625 0.3075 0  0.61875 0.3075 0  0.61875 0.1025 0  0.3648540804333487 0.1240075933101478 0  0 0.3075 0  0 0.1025 0  2.099172119769978 0.25625 0  0.48125 0.09238439620688085 0  0.5781001037344399 0.2059284232365146 0  0.48125 0.3196743479159776 0  0.7265881057911006 0.3055240343720796 0  1.99375 0.08395950269330846 0  1.459960956013612 0.3075 0  1.569025960719943 0.2986889805672169 0  0.75625 0.08213100772579164 0  1.03125 0.3278689922742084 0  0.923871252904788 0.3078247185783941 0  1.959375 0.3126371951219512 0  1.749222215368287 0.1025 0  1.275777784631713 0.1025 0  2.2 0.1025 0  1.225938124459196 0.3075 0  1.550777784631713 0.1025 0  1.000777784631713 0.1025 0  1.44375 0.07430640243902442 0  1.16875 0.07430640243902437 0  1.899250267340833 0.2229966846119207 0  0.1020898364287272 0.3140258291809757 0  1.766482954545455 0.2934032012195123 0  0.3405058858996321 0.2119987970531874 0  0.7710785630958338 0.1710968191298857 0  1.046078563095834 0.2389031808701144 0  0.2 0.3400647632937836 0  1.421109702350723 0.2261157654379721 0  0.2800464974185557 0.08982544815605742 0  0.098916018031319 0.09171660955420841 0  2.13125 0 0  2.118919042110979 0.3422084711244843 0  1.30625 0.41 0  0.89375 0 0  1.597888256393107 0.2173787389261347 0  0.20625 0 0  1.829299675393195 0.07400700849299596 0  1.71875 0.41 0  1.16875 0.41 0  2.038220665644273 0.332420740103091 0  0.34375 0 0  0.417496017710808 0.2696595573092803 0  0.2 0.07687845740457822 0  0.9295982307099278 0.1343158415898188 0  0.07390688010811153 0.1697064032433452 0  0.5238366813727013 0.2578302467013575 0  0.05452951551825875 0.25625 0  0.5229630068078351 0.1548816096928243 0  1.452769549894695 0.1548122580621249 0  1.369219062229598 0.07430640243902442 0  1.30625 0 0  0.8504409521244898 0.3356935975609756 0  0.8821881244591965 0.205 0  1.720943423819132 0.1714577452753128 0  1.157188124459196 0.205 0  1.094219062229598 0.07430640243902437 0  1.03125 0 0  1.304056576180868 0.1714577452753128 0  1.67579304192913 0.07430640243902437 0  0.2751941921308361 0.3346083473122598 0  1.209670467133757 0.1362100266964769 0  1.025335513626278 0.1700681449722324 0  0.7562500000000001 0.41 0  1.58125 0 0  0.7567170593862014 0.2409196493502535 0  0.6926714215682891 0.1272249611432207 0  0.4139715849905988 0.3397932387114203 0  0.9840787304190477 0.2717749043358119 0  0.06875000000000001 0.41 0  0 0.35875 0  0.9281250000000001 0.06276726142697993 0  0.5507396469029935 0.3219409231578227 0  0.5504468037989405 0.09136885600634273 0  1.58125 0.41 0  1.631724228912893 0.3381867502687533 0  1.825608881788174 0.14499488549201 0  1.85625 0 0  1.44375 0 0  1.44375 0.41 0  1.85625 0.41 0  2.13125 0.41 0  0.7562500000000001 0 0  0.89375 0.41 0  0.4812500000000001 0 0  0.34375 0.41 0  0.4812500000000001 0.41 0  0.20625 0.41 0  0.06875000000000001 0 0  1.16875 0 0  0.61875 0 0  0.61875 0.41 0  1.03125 0.41 0  1.71875 0 0  1.99375 0 0  1.99375 0.41 0  1.340625 0.3489494290853124 0  1.134375 0.3489494290853123 0  1.700180620188976 0.3438659752031281 0  2.135782184673599 0.07126652247502523 0  1.668441847249787 0.2129203728327609 0  1.295782514339747 0.2378437748815763 0  0.8233075729931248 0.06842334294821524 0  1.409375 0.3520314716057996 0  0.403505597322782 0.182067236678212 0  0.378125 0.05794951541303489 0  0.3043468223249023 0.1518321115979534 0  2.129248544730567 0.1906135162504124 0  2.060771381434487 0.1989445750470348 0  2.013252586573865 0.1496169464686054 0  1.942766402200229 0.1734448904596831 0  1.895522487186454 0.06076163953489683 0  2.069553871656643 0.06605731020975725 0  1.274680914880868 0.3520219391081363 0  1.614713220494657 0.09473434380863296 0  0.7899021319497519 0.3149123934144827 0  0.69518737419149 0.0634051089053758 0  0.2971740475496061 0.2592172353407536 0  1.72990325744076 0.2380068107952482 0  1.356580098625191 0.2120393231351682 0  2.034370752044885 0.2668681600792073 0  1.51768709249349 0.3426260931494756 0  1.561883724969884 0.1650446847858835 0  1.197344062229598 0.2523725417393646 0  1.804085235518364 0.3468178408964637 0  1.817887819205233 0.2589243285818559 0  1.905897727272727 0.3485060975609756 0  0.6719798073392919 0.2688965171178177 0  0 0.05125 0  0.653125 0.35875 0  0.6396896119294488 0.1627615407790282 0  0.4274150154087412 0.1242548552168279 0  1.192836486056382 0.3562350748565544 0  0.8279124365364005 0.183856489168822 0  1.097485222388854 0.2083571153401724 0  1.28257088594801 0.2944411014911587 0  1.474860187679412 0.2504218616229368 0  1.406767003493824 0.2829282258560709 0  0.446875 0.04619219810344041 0  0.515625 0.04585361801037557 0  0.592043440706648 0.05125 0  1.845656689180403 0.1998310418452388 0  2.144958525570388 0.2909790873294231 0  0.6171090763650112 0.2492366900333857 0  2.2 0.15375 0  0.5145586920831158 0.3648371739579888 0  1.57794966442982 0.3540357145964566 0  0.721875 0.3633107922168974 0  0.0496154796471391 0.333125 0  0.5843750000000001 0.3662560860076676 0  0.5810878747760798 0.1474002776121195 0  1.508991196088596 0.1421783375065625 0  0.8840670607017558 0.2640994375393898 0  0.09776612425612034 0.2204896805326566 0  1.50436820029908 0.06143401634903343 0  1.223857000523521 0.0823554862453532 0  1.153316824384777 0.1289850171317837 0  2.148922302309752 0.1258841779285271 0  0.309375 0.04312325590431198 0  1.621993280276081 0.2841214267927899 0  1.550118654119087 0.2461998729100966 0  1.327182649291491 0.1216967252533594 0  1.051977450479407 0.1221382572915816 0  1.753125 0.04556020050186112 0  1.271875 0.04556020050186116 0  0.9816084133102366 0.05126138213476004 0  1.039051841454368 0.0572224914831029 0  0.9719230514536006 0.3480477870845102 0  1.94956388244759 0.1180512551534177 0  1.949997712993411 0.04965831614304109 0  1.771961817615021 0.1530278789497521 0  1.909246823951428 0.2812757146784527 0  0.2459536687882397 0.04668633953831142 0  1.948575539857022 0.2445328248721197 0  1.697271520964565 0.1233917627620729 0  0.7964897648514618 0.1211426571931604 0  1.065625 0.3689344961371042 0  1.085849084308977 0.3170853572226867 0  0.4702981435440001 0.260434880697798 0  1.577403511714593 0.05463601888079143 0  0.05622663515370135 0.05493816910862376 0  0.3267207591099919 0.3566194660323104 0  0.9003051618565143 0.3564049499960621 0  1.751571320346033 0.3651102912045228 0  0.1583785085108421 0.2994699345738728 0  0.1455283439499995 0.3542795598723423 0  2.2 0.35875 0  0.2347662494194072 0.298325008655211 0  0.1527284455616188 0.1065771775690181 0  0.1382139529076665 0.05427454456341477 0  0.8749341636311069 0.05110114999892954 0  0.643661668713109 0.05693499781019222 0  1.466879772203159 0.3611261772912453 0  1.990280163552011 0.3564754268533217 0  1.17471064520912 0.2990917256188288 0  0.5202693090594349 0.206382495511728 0  0 0.25625 0  2.2 0.25625 0  2.2 0.05125 0  0 0.15375 0  1.853978576207987 0.35875 0  0.9787513713939683 0.1487523696999336 0  0.240625 0.3722153812029779 0  1.515638456102889 0.2882700110184686 0  0.09048297387599738 0.3637717362208066 0  2.150453692751374 0.2387066338105111 0  1.323782677156475 0.04897634338873398 0  0.8074131292871642 0.3624701995505916 0  1.409375 0.03715320121951221 0  1.406484531114799 0.1087852750766809 0  1.134375 0.03715320121951218 0  1.627401732573545 0.04552157221025036 0  0.1170173172005315 0.1427610859166811 0  2.045405893604797 0.1105340662939892 0  1.255408269734577 0.1577307500159216 0  2.028125 0.03707597992059326 0  0.4743610090857199 0.1421513964721819 0  0.9354010469015898 0.250631300585664 0  0.04420832937638274 0.128125 0  0.8922386349349938 0.0992956419364831 0  0.1197849154434487 0.2663398672460083 0  1.248258025468107 0.2565907092181813 0  0.3746885856929528 0.370723531618974 0  1.203125 0.0366132337404304 0  0.5724622277005015 0.2751253816079333 0  0.3365425205162783 0.08395777655057959 0  2.072662025974815 0.2975086504196739 0  0.4581080832182547 0.3648371739579888 0  0.3874522734668214 0.2295447548840689 0  0.7827853612484443 0.04106550386289586 0  1.887722846421017 0.1760882698830035 0  1.472640588990488 0.1118278026240017 0  1.865937103925594 0.2604137786483804 0  1.463913572748262 0.2030442564990043 0  1.376426316059077 0.3186741374914345 0  0.6641993820150034 0.3141688596240831 0  0.2943117490824315 0.2130987422685822 0  0.3478153998082709 0.1666571081082676 0  0.3427990510599805 0.2575950027870776 0  0.7997118993855807 0.2216171933356366 0  
[...]
<PointData  Scalars="f_10-0"> 
<DataArray  type="Float64"  Name="f_10-0"  format="ascii">8.5215419230651540e-05  9.6394196923007137e-04  1.5562612543544333e-03  6.6376905274078150e-04  8.3206830205844688e-04  1.6588968362078941e-03  2.2883366421821510e-03  2.2750955060715705e-03  1.5732874215645459e-03  7.7850721101198556e-04  4.2219962625763988e-04  3.2412015911891293e-04  2.8264855249822765e-04  3.2938601259507172e-04  3.9024765106302301e-03  4.1334037479241899e-04  3.0660974010723164e-04  4.8899316383959257e-03  1.1859125040773939e-04  5.3167013186607003e-03  1.0549134661506937e-04  7.6579251203050030e-04  3.1166571159512587e-03  2.2900380565394116e-04  4.3681118437721477e-03  3.5060515062601107e-03  6.0328732620198837e-04  2.5005471640533656e-03  8.2485602856882342e-04  1.9666194259335620e-03  1.8956415628871028e-03  1.9190991298891381e-03  1.9885742816256216e-03  1.9929901188496931e-03  1.3858962919193498e-03  1.7133894668071635e-03  1.6617680946463922e-03  2.0305827110577443e-03  7.7004922128057218e-04  9.2159026873990177e-04  5.1449740667383476e-03  1.0936576778455622e-04  8.1641583222083708e-04  2.6474722581115023e-03  3.3197310941584747e-03  2.8571292687959585e-03  6.9046463175618665e-04  1.0707161754278122e-03  3.1742934802208705e-04  4.1268927290655155e-03  1.5797586153424388e-04  4.6275429938820445e-03  3.8867913972569965e-03  9.2735169505276500e-05  3.6950228754645742e-03  2.8134247655851666e-03  5.1092701468205494e-04  2.4791884620146377e-03  1.0624991999194111e-03  1.2778770845599150e-03  3.2801808577879086e-03  1.1691357580302674e-03  1.9409101849623175e-04  2.3684022707672007e-03  1.9416195313428420e-03  1.1171051591470943e-03  3.8187717275287546e-04  4.0570974001515386e-03  4.0182827706773169e-03  1.3786998168395257e-04  5.8846426256155911e-04  1.2836983046016718e-03  4.4723170158749471e-03  1.8401364109203833e-03  1.9960159410631762e-04  5.0631654031558842e-04  2.3295775962407193e-03  9.9250235229298225e-04  1.1004852110631624e-03  4.0982153437516943e-03  5.9106479799311666e-04  6.5977525777197860e-04  1.0789050712585733e-03  2.7257353339047116e-03  3.2049027386950252e-03  1.6920302845434883e-03  8.6764111235206433e-04  2.9405133965864092e-03  3.5076477925234271e-03  3.2411814340108781e-03  3.5671162583190848e-03  1.6881447056369164e-03  1.4026298336658740e-04  1.1942207178573961e-03  1.2855558411283702e-03  2.6085894825438058e-03  1.5055293868293622e-03  1.4530723252704255e-04  1.7376473438098930e-03  4.5911984901467386e-03  5.0861404370192596e-03  1.7594010039488847e-03  8.6795955182219196e-04  5.5844110262042509e-04  4.2456477926786631e-03  1.8274349867998868e-03  5.0842073734345830e-03  2.7249655708894574e-03  7.9596941756139323e-04  4.6227051516355361e-04  9.6007525484822066e-04  5.2642786392689761e-03  3.8571842979944122e-04  5.6351927290998359e-03  3.1496743956201342e-03  4.1944065599167774e-04  7.4360024702691441e-04  2.0849538747687014e-04  3.1416253233035223e-03  2.5361457228726997e-03  3.3249085170500678e-03  3.6017537374285345e-03  4.1139665236447078e-04  1.9763315641134734e-03  2.2279788343459693e-03  1.9956743501200946e-03  3.6627852382462027e-03  4.0101056924753738e-03  2.4105523541127008e-03  2.9658042901062032e-03  1.5504853611391511e-04  2.9009146668699348e-03  2.5342990095179032e-03  1.8908084395526719e-04  3.2217600422248609e-03  1.3096875000871470e-03  3.5182815397793396e-03  1.4308664307468669e-04  1.0573563716169158e-03  8.6461972109687328e-05  9.8227840537957480e-05  3.9935774424659050e-03  2.4134142039143898e-04  4.3533515753732925e-03  7.2994064799208576e-04  9.0150471800794544e-04  2.3545497908873353e-03  2.6918572967458325e-03  3.4149353851718744e-03  6.4879127319186552e-04  8.2980542487220727e-04  7.1417108796639371e-04  4.4972335836526061e-03  2.6968439230386980e-04  5.0194861440217937e-03  1.0819553420213576e-04  1.1117638074018342e-04  9.9437125458370110e-05  1.7332152306553145e-03  3.7950895592069049e-03  4.7584217171528073e-03  1.3443325013012139e-04  3.6308884256144392e-04  2.9965104933494164e-03  2.2741090607027647e-03  8.0865875984428056e-04  6.8914093603500979e-04  5.5373515015753590e-04  9.0569792490630011e-04  1.8893183760353353e-03  1.8610432626719024e-03  1.5881525311006288e-03  4.1224305834160037e-03  7.2280397266578597e-04  2.4561125407127002e-03  5.0261144888548376e-03  3.0982326810624888e-03  1.5873527845859557e-03  1.6731224250036015e-03  2.0385049528810458e-03  2.0103219750258841e-03  2.6146774431622627e-03  2.1180102447381378e-03  6.3633241034228996e-04  2.9288787546598223e-03  4.9152758842831211e-04  4.3916748619596399e-03  3.8677783534476448e-04  1.6221946541074687e-03  1.8993855134168342e-03  1.2906149537858032e-03  8.2311097533726597e-04  2.3736441367313882e-03  1.3917472456436127e-03  9.2822091161603418e-04  1.4405008562240634e-03  9.3524263113503169e-04  8.1807177651478408e-04  7.9387431971796767e-04  1.8965244637508081e-04  2.8467346981493492e-03  4.0088582048077954e-03  5.6394690562003140e-04  2.3507826882026377e-03  1.9463239639935439e-03  1.0033370165188518e-03  1.4865000192157663e-03  1.1610916127096451e-03  4.9905265500075138e-03  4.8554414568830750e-03  4.6824111878910595e-03  1.9068191879120439e-03  1.0504283309109251e-03  1.0275796402837109e-03  1.5846141961743374e-03  1.3136991939963417e-04  8.1090285996602022e-04  2.1678382113520892e-04  1.1596265395312620e-04  1.4854513671312938e-04  3.2479973809234268e-03  2.6329287176475335e-03  1.0855479384321140e-03  2.8142158083455955e-04  3.2330371437491682e-03  3.4375700583233050e-03  3.0330175068181793e-03  1.7866697479815301e-03  5.2675801761379922e-03  1.2266539949145438e-03  1.5405085940017210e-03  2.9712787178397403e-03  3.2100402084295899e-03  2.9331968524088660e-03  3.5893508045502860e-03  3.9863562438738126e-03  3.8605159973732284e-03  4.4119088571630054e-04  2.3217964121885360e-03  2.4857599991419486e-03  2.3478162267174577e-03  1.2687182689518454e-03  5.4569068485693963e-03  1.4991603376001913e-03  2.6457168535835101e-03  3.4930488064402656e-03  4.3384238174708374e-04  7.0568994619605511e-04  5.9920210287218968e-04  3.1674803903798039e-03  1.3958174319894448e-03  1.2902318261444031e-04  3.5365291757754257e-04  8.5604317006643849e-04  1.8499940337274833e-04  1.1696884122138049e-04  7.4709106311099372e-04  2.1367757748487286e-04  5.6028636213546583e-03  6.0679436303489823e-03  4.1643714807794449e-03  4.5453035958082175e-03  7.2512007716033649e-04  8.9564653141971503e-04  9.0379829168447370e-04  1.7795094314997451e-03  2.0534974039048884e-04  1.1476473869021318e-03  1.6629671369132830e-03  4.4609245369702834e-04  9.0004523041669617e-04  2.8901468685337264e-03  1.1596794899989055e-04  1.1600325663629510e-03  9.9448013664299876e-05  1.3016983861218617e-03  3.5088476785772676e-03  2.7147200791815629e-04  3.4313786971524153e-03  3.0258723369840541e-03  3.8108961301444150e-03  3.1271932975585458e-03  2.8174257969348104e-03  2.1266687159493961e-03  2.6048601897396728e-03  2.2301829970681683e-03  3.5325369954800701e-03  1.2948233295750470e-03  6.8980633297462015e-04  3.6855528920055327e-03  2.1291182784241450e-04  1.3622136349693314e-03  1.1885982661456737e-04  3.7096438488219427e-03  6.0347952714914939e-04  4.7445247793841336e-03  1.0927127969752259e-03  1.2442715817043631e-04  9.1829564600537437e-04  4.3779315030387433e-03  2.0572284342062867e-03  2.9401325190908504e-03  1.4204905212157587e-03  1.9949117746337923e-03  8.7308371834991100e-04  3.8059042217216071e-04  1.2471710679439660e-03  3.0157294188309894e-03  3.6554449312800131e-04  1.6609357840022888e-03  1.2587968072918835e-03  1.5310574229517487e-03  1.9557596625457883e-03  2.6870161038026891e-03  3.4947622435366676e-03  1.6232162328129937e-03  9.7618622277312794e-04  1.3368639828784691e-03  2.1703575353711202e-03  3.0882749415455588e-03  7.9146347820580260e-04  2.5803377060423772e-03  1.8066967073974379e-03  1.2109299978660115e-03  1.1394523045661559e-03  2.9633501115644719e-04  1.3687239357151252e-03  8.6131427825055830e-04  7.4456625346284164e-04  8.3551144040413161e-04  3.1990555413308713e-03  4.4655645641203164e-03  7.4853811212808436e-04  2.6053220700210347e-03  1.1165012912780306e-03  4.6622520846049181e-03  1.5077838844086871e-03  2.3181689462892590e-03  3.3678815243781079e-03  2.1072473405359185e-03  7.1144812094400443e-04  2.4810720406280020e-04  3.0585779520303879e-03  3.0094587396741496e-03  3.4106539168814734e-04  3.9671766573459515e-04  1.7384057203997543e-03  7.3534349085994412e-04  8.5200843831091276e-05  4.0975273116101371e-03  2.3262727213555675e-04  2.3921185270410908e-03  2.7413861879800644e-03  1.5899382016561910e-03  2.8502765491271822e-03  2.5833866708909305e-03  3.2721979669804490e-03  8.7231263293500105e-04  1.3714323916632588e-03  3.5639172027461382e-03  8.2318382945790471e-04  3.9022729379259756e-03  1.0157791569325842e-03  8.1396748345169347e-04  3.7190851231106211e-03  4.7307923577828009e-03  9.6450365955693713e-05  1.9328329871465203e-03  2.9477086098368054e-04  1.9578375704857594e-03  5.5556814388288216e-04  1.7678930582718680e-03  3.3514345645852851e-03  5.4835202209264555e-03  2.4118632137476140e-03  2.7486690626065597e-03  1.4373619168438078e-03  8.8550580154853726e-04  1.9741084163062985e-04  2.1164565905234194e-04  2.0017514143043443e-03  3.4521350375736962e-03  1.4657421778617465e-03  1.5597501212075160e-03  2.5229382117345650e-03  4.7770207733844878e-04  1.6267850980487462e-03  8.9052128309294386e-04  2.3674012127383195e-03  7.2717721962559470e-04  8.2933220846305499e-04  2.7224304156796809e-03  2.6009336165901636e-03  2.4940066374749183e-03  2.9944749580996439e-03  2.8567164938685915e-03  3.0860233925834235e-03  2.7988724194359690e-03  1.1160880531475854e-03  5.3569464791454469e-04  2.0403583455397961e-04  9.2857549643769310e-05  8.3718483842994509e-04  2.6389964398871742e-03  2.7627571645125744e-03  6.7351854950345729e-04  1.5485793778322805e-04  4.8200034024892388e-03  2.0323395359344670e-04  2.8043313936907902e-03  3.9899479973827048e-03  3.3917850424410159e-04  2.5478853213759239e-04  2.3024359822569366e-03  3.9941690095913958e-04  1.2475632115005783e-03  3.8268517784325350e-03  2.2330112148845915e-03  1.2656515294940311e-03  1.1770302772807745e-04  1.0990305681791232e-04  1.4918119030342990e-03  1.0703491211881294e-04  2.5129822706828472e-03  2.5122788710068645e-03  3.9360572852687389e-03  2.5900486538900803e-03  3.9469158191030879e-03  3.8458138425871816e-04  1.2722735789339242e-03  2.8641284347539418e-04  1.6817572179344878e-04  3.2823564480136572e-03  1.9412978541208342e-03  2.0302011735511467e-03  2.5176646520369897e-03  2.8451725422678513e-03  3.0323964250804306e-03  3.4972701764532173e-03  3.2960378808876592e-03  2.3629142484389411e-03  2.5675194602080890e-03  2.1162340167565816e-03  2.2839764801853490e-03  1.4514555594491465e-04  3.2866733760863747e-03  3.0358168269384589e-03  2.2398302372428911e-03  1.5569323568351756e-04  1.0038980366639545e-03  1.0090794040569344e-03  3.4828064157930842e-04  3.4888825554154059e-03  3.5450073730612625e-04  7.1089681478737681e-04  1.1189219525383088e-03  7.8298613841332871e-04  2.2026546286602298e-03  7.2492528229688429e-04  3.5207790247836716e-03  2.7773885419391355e-03  3.2898507172693473e-04  1.4283812370979184e-03  1.5220522133130563e-03  3.3093959126740289e-03  2.3137374476801158e-03  1.0893559175931351e-03  1.4316884621341517e-03  1.4476534580705827e-03  9.9225476418065249e-04  3.1619689316856122e-03  1.9724263477274048e-03  3.0484723384513715e-03  2.3425963109791506e-03  4.6127940528116708e-03  3.2870938172092521e-03  5.1491525838735341e-04  4.1121053072120748e-03  4.1839357224277094e-03  4.3069078502797533e-03  4.2962752038931389e-03  1.7869104111673680e-03  1.9236064379806062e-03  4.0144870208068768e-03  1.7510412712729117e-03  7.8102323801638660e-04  8.1308842335646415e-04  1.8372676343395833e-03  1.8100095732014262e-03  2.4165490465537778e-03  2.1648944217396490e-03  1.1216367087446783e-03  5.1576581190042074e-03  1.1701209027563226e-04  3.6433414387991173e-03  2.3464517330448608e-03  7.6564491154875380e-04  2.8712091590191056e-03  4.8805486109392948e-04  4.3812001212578607e-04  5.9596827066308602e-04  5.7857027570375728e-04  6.4382942790928977e-04  7.7326274559668176e-04  2.2067195352397022e-03  1.7938815246451726e-03  4.8532239754974800e-04  2.0883723135754989e-04  1.4914595643684137e-04  1.8910307243806305e-03  3.5653639671228928e-03  5.0963707779115271e-03  5.2087938924953985e-03  1.9249040845576581e-04  3.9022698793454258e-04  2.4063406306340082e-04  2.1367932842464513e-04  2.1701606446737479e-03  3.6660297419268974e-03  1.4694934325695723e-03  4.5401936868903411e-03  3.7092768445609490e-03  4.0010402285275823e-03  8.9979331775082876e-04  7.8016207025864346e-04  1.8996462411265832e-03  1.8269507402013342e-03  1.2738379713720439e-03  5.3303204845339290e-04  4.4703099658206363e-04  3.7669944737225534e-03  4.9738204303557947e-03  3.5530901641611617e-03  3.9541139500292415e-03  1.6275859039696519e-03  1.8925049497487518e-03  3.8472579852757765e-03  3.4589242384252344e-03  6.7007216581448342e-04  8.0760487918100313e-04  3.8845675557096595e-04  2.9300766380262002e-03  1.7321749355854500e-04  6.2535263716537637e-04  4.5613975085132359e-03  6.8360096774886881e-04  4.1830332529755312e-03  1.0885546435308475e-04  5.0846563053999648e-03  1.0975190808674190e-04  2.8041808087248526e-03  1.0283922316708257e-04  5.2563906230418027e-03  8.9024303894589093e-05  4.6942845288179590e-03  4.4325496604060068e-03  5.3087876939830756e-03  1.2472593714501332e-04  1.1367916644681723e-04  4.8263207191633550e-03  4.9575315436133265e-03  1.4355591789908534e-04  4.0647633190533132e-03  3.7458150879368162e-03  3.1704763399194049e-03  2.3908071700921730e-03  3.6479748163353119e-03  2.1533451178146852e-03  8.1694307714867134e-04  8.2399865782820071e-04  2.2010148544011191e-03  4.1190593190567719e-03  2.8741608430072458e-03  2.6320398560592804e-03  4.5811238163528745e-03  1.5327081080224977e-03  1.2165491391620635e-03  6.6176681679478355e-04  9.8070254969222963e-04  9.5094027379419223e-04  2.5878482210550200e-03  2.5044060173858197e-04  8.0511530950181927e-04  6.5502777289329751e-04  1.4665129973923773e-03  1.0816771950281859e-03  1.9049275360528545e-03  4.9130848606725687e-03  1.3517166453152650e-03  2.5749474905525814e-03  1.5470952702757164e-03  1.9713798892266200e-03  1.0963087859974820e-03  6.9810972851547097e-04  5.3506193895608658e-04  9.7996648524159590e-04  3.4895096641652081e-04  2.5190445880770576e-04  2.0649155227370469e-04  3.1937759858606026e-03  1.5037233984781012e-04  2.1058340281383042e-03  2.0393728877771636e-03  3.5818391537579121e-03  1.7349152269977990e-04  2.2890875864633241e-03  2.1995841826343043e-04  6.9526909206388699e-04  1.8323979481802632e-03  2.1700722752236606e-03  9.7182345403813182e-05  9.3898485860256081e-04  6.3453079483673288e-03  5.7323036205441595e-04  7.4073550093628308e-04  1.4477072801737465e-03  1.1077058939133163e-03  8.4308497409134688e-04  1.9183862775610382e-03  9.9304307432827822e-04  1.1045765486023128e-03  1.6264864431588561e-03  2.4216399953974829e-03  1.1325122659264619e-03  4.4707422774711006e-03  2.5236905828089191e-03  2.6905536764835394e-03  3.6300078906416674e-03  4.7169229590924460e-04  3.0054973856125135e-03  2.9978872238211650e-03  2.5113287797282188e-03  8.5100609416003488e-04  6.3000521219317134e-04  7.3642780378810324e-04  8.0589420285925861e-04  3.7149046713119390e-03  4.9069278933834620e-03  3.4205000997957276e-03  7.5747477078325976e-04  3.1205731564772922e-03  2.2299696381299586e-03  5.2750000618007678e-03  3.2206525895979547e-03  3.3112469013583706e-03  4.5686836653462837e-03  1.6148929775990461e-03  8.4863403339357525e-04  4.5019626842806681e-04  9.6905641464796900e-04  2.3981000066774284e-03  3.2212032709198991e-03  3.2442837367268433e-03  1.6971451550752451e-03  3.6736207605995875e-03  7.5509141228283954e-04  2.8260550095115578e-04  1.4040973132487852e-03  4.7135637744777827e-03  1.7081503979021410e-03  1.1541096744071822e-03  1.6148867960815761e-03  2.1672957806916872e-03  3.2229340048318526e-03  1.3000175595394459e-03  1.2612138987118818e-03  1.5975847089962295e-03  3.3317614403217347e-03  8.3784414993209812e-04  9.0969009662515764e-04  9.7029144537822277e-04  2.6102774978994472e-03  2.5338218549204035e-03  7.8334993104494191e-04  1.7584696394374629e-04  1.5583325486974613e-04  8.3592759569485291e-04  5.3327954611803469e-03  1.1606706149338498e-04  3.0724568428639132e-04  2.2537164597949918e-03  7.3331739648525829e-04  6.0224959951105615e-04  1.5479072276480094e-04  3.4494510248366684e-03  8.4134775859621253e-04  2.9352579534557693e-04  2.4214795992476569e-04  2.5225770814458315e-04  5.2072190420137032e-03  2.0176221250079438e-03  5.2732961216025293e-04  2.7871702190172504e-03  1.5636495464529795e-03  2.6822479048177667e-03  1.2346622563590294e-03  1.2677584182489684e-03  1.0138085014193942e-03  4.4562415635859233e-03  2.3850370069853897e-03  2.1038514364026292e-03  2.7353660006994534e-03  1.3510057956377082e-03  2.2604913579043952e-03  1.7806326232466050e-03  1.3030967344353980e-03  1.2519931324676825e-03  3.8139663543153629e-03  1.1657910105648952e-04  1.4571012708949400e-04  1.4607314098463323e-03  7.8438187922042477e-04  1.8235241585776256e-03  1.6875613426353315e-03  1.2073040749745315e-03  1.7220479565754623e-03  3.4074744045002937e-03  9.8795630447310202e-04  4.3757188576711431e-03  4.2994326278140487e-03  4.9414160961758300e-04  2.0090040177239074e-03  1.9771964620079749e-03  1.2109843436414111e-03  1.4190114399423746e-03  3.3165824966014778e-04  3.8231916734245814e-03  1.8534705050134060e-03  9.2887096812393610e-04  9.7421280368786085e-04  6.1095193470389055e-04  3.1646487998357052e-04  1.6516633833532184e-03  1.6099289416617301e-04  1.0406048811721544e-03  1.2944161986296581e-03  2.9161362344311384e-04  5.5731281733425466e-04  1.8951988948866203e-04  2.9291126398086052e-03  1.0533665765732800e-03  6.5870930957196306e-04  4.4695632412618475e-03  2.9246714074706612e-03  8.2797705179864678e-04  3.9749158931300203e-03  1.5009649887400686e-03  4.6930655895145168e-03  2.5985628820019676e-03  1.0601756516359735e-03  4.7631400975847882e-03  3.2278879522854298e-03  3.7139756504918184e-03  4.7798388675645096e-03  2.4897175911241882e-04  8.2297476814220986e-04  9.3843505541274909e-04  1.2073489986994040e-03  9.6027119254285770e-04  1.1969432762728188e-04  1.6306976238886150e-03  1.0083115154245175e-03  2.7907236905229935e-03  3.5929116022399552e-03  2.9741826446978443e-03  2.9015061147321377e-03  2.8132686239132360e-03  2.0967209531833975e-03  2.9667903617265384e-03  3.3238073752183974e-03  4.9345246003403374e-03  2.1590803932256381e-03  6.4413947368112032e-04  7.2235086055997036e-04  5.5019924543251570e-04  7.5222502785257390e-04  1.1898934837406531e-04  1.4254451463877646e-04  3.4408413132127878e-03  3.8508428395277903e-03  5.6317275199881623e-03  1.6920923367950288e-03  9.9269220214850195e-05  5.3539826440549554e-03  3.6920477023136408e-03  1.1187912294197114e-04  2.9098875937301201e-03  1.4916411281405736e-03  3.3586811974500169e-04  2.5584654370816118e-04  9.3248583168448727e-04  8.2812896431499669e-04  2.4490417951909826e-04  2.4068991832006245e-03  1.3929484412174780e-04  7.3493922693967386e-04  1.1481725191463924e-04  1.2778314754809689e-04  5.5828519163686622e-03  6.9576723890594190e-03  2.1950493936950879e-03  1.4453368105194998e-03  3.5515573133964310e-04  1.7241471982050107e-03  1.3190257457764228e-03  1.6616307316221961e-03  8.3841003123660048e-04  3.5253151710319197e-03  2.3521597875233637e-03  1.9388639393520624e-03  1.2589035940785607e-04  8.7895228797563868e-04  2.5531492661511174e-03  2.5047547638040388e-03  1.5009500274825748e-04  3.3454425936448322e-03  8.9709772365545058e-04  2.3339205632575632e-03  2.5479308403524607e-03  4.9026040232944131e-04  1.0514711503722637e-03  2.8290850483281530e-03  4.9112862697514780e-03  2.2557365614640466e-03  5.2877547553482219e-03  8.4254186922865892e-04  1.9045632251809960e-03  3.6575664773897635e-04  1.6984006301801764e-03  3.1923153132656