<?xml version="1.0"?>
<VTKFile type="UnstructuredGrid"  version="0.1"  >
<UnstructuredGrid>
<Piece  NumberOfPoints="2446" NumberOfCells="4585">
<Points>
<DataArray  type="Float64"  NumberOfComponents="3"  format="ascii">0 0.41 0  0 0 0  2.2 0 0  2.2 0.41 0  0.2404508497187474 0.2293892626146237 0  0.25 0.2 0  0.2404508497187474 0.1706107373853764 0  0.2154508497187474 0.1524471741852423 0  0.1845491502812526 0.1524471741852423 0  0.1595491502812526 0.1706107373853764 0  0.15 0.2 0  0.1595491502812526 0.2293892626146237 0  0.1845491502812527 0.2475528258147577 0  0.2154508497187474 0.2475528258147577 0  1.1 0 0  1.1 0.41 0  0 0.205 0  0.55 0 0  0.55 0.41 0  0.275 0 0  0.275 0.41 0  1.65 0.41 0  1.65 0 0  0.8250000000000001 0.41 0  0.8250000000000001 0 0  1.375 0 0  1.375 0.41 0  1.925 0 0  1.925 0.41 0  1.5125 0.205 0  1.7875 0.205 0  0.6875 0.205 0  0.9625000000000001 0.205 0  1.2375 0.205 0  2.2 0.205 0  0.4687002074688797 0.2068568464730291 0  1.99375 0.2152743902439024 0  2.0625 0 0  2.0625 0.41 0  2.2 0.3075 0  0.4125 0 0  0.4125 0.41 0  1.7875 0.41 0  1.375 0.1486128048780488 0  1.5125 0 0  1.7875 0 0  1.5125 0.41 0  0.8250000000000001 0.2613871951219511 0  0.9625000000000001 0.41 0  0.9625000000000001 0 0  0.6875 0.41 0  0.6875 0 0  0.1375 0 0  0.1375 0.41 0  1.2375 0 0  1.1 0.1486128048780487 0  1.2375 0.41 0  1.65 0.1486128048780487 0  1.126715909090909 0.2793064024390244 0  1.676715909090909 0.2793064024390244 0  0.8517159090909092 0.1306935975609756 0  1.348284090909091 0.2793064024390244 0  0.34375 0.3032389320646208 0  1.894702181800738 0.1282910975492754 0  2.092797818199262 0.1282910975492754 0  1.85625 0.3075 0  0.61875 0.3075 0  0.61875 0.1025 0  0.3648540804333487 0.1240075933101478 0  0 0.3075 0  0 0.1025 0  2.099172119769978 0.25625 0  0.48125 0.09238439620688085 0  0.5781001037344399 0.2059284232365146 0  0.48125 0.3196743479159776 0  0.7265881057911006 0.3055240343720796 0  1.99375 0.08395950269330846 0  1.459960956013612 0.3075 0  1.569025960719943 0.2986889805672169 0  0.75625 0.08213100772579164 0  1.03125 0.3278689922742084 0  0.923871252904788 0.3078247185783941 0  1.959375 0.3126371951219512 0  1.749222215368287 0.1025 0  1.275777784631713 0.1025 0  2.2 0.1025 0  1.225938124459196 0.3075 0  1.550777784631713 0.1025 0  1.000777784631713 0.1025 0  1.44375 0.07430640243902442 0  1.16875 0.07430640243902437 0  1.899250267340833 0.2229966846119207 0  0.1020898364287272 0.3140258291809757 0  1.766482954545455 0.2934032012195123 0  0.3405058858996321 0.2119987970531874 0  0.7710785630958338 0.1710968191298857 0  1.046078563095834 0.2389031808701144 0  0.2 0.3400647632937836 0  1.421109702350723 0.2261157654379721 0  0.2800464974185557 0.08982544815605742 0  0.098916018031319 0.09171660955420841 0  2.13125 0 0  2.118919042110979 0.3422084711244843 0  1.30625 0.41 0  0.89375 0 0  1.597888256393107 0.2173787389261347 0  0.20625 0 0  1.829299675393195 0.07400700849299596 0  1.71875 0.41 0  1.16875 0.41 0  2.038220665644273 0.332420740103091 0  0.34375 0 0  0.417496017710808 0.2696595573092803 0  0.2 0.07687845740457822 0  0.9295982307099278 0.1343158415898188 0  0.07390688010811153 0.1697064032433452 0  0.5238366813727013 0.2578302467013575 0  0.05452951551825875 0.25625 0  0.5229630068078351 0.1548816096928243 0  1.452769549894695 0.1548122580621249 0  1.369219062229598 0.07430640243902442 0  1.30625 0 0  0.8504409521244898 0.3356935975609756 0  0.8821881244591965 0.205 0  1.720943423819132 0.1714577452753128 0  1.157188124459196 0.205 0  1.094219062229598 0.07430640243902437 0  1.03125 0 0  1.304056576180868 0.1714577452753128 0  1.67579304192913 0.07430640243902437 0  0.2751941921308361 0.3346083473122598 0  1.209670467133757 0.1362100266964769 0  1.025335513626278 0.1700681449722324 0  0.7562500000000001 0.41 0  1.58125 0 0  0.7567170593862014 0.2409196493502535 0  0.6926714215682891 0.1272249611432207 0  0.4139715849905988 0.3397932387114203 0  0.9840787304190477 0.2717749043358119 0  0.06875000000000001 0.41 0  0 0.35875 0  0.9281250000000001 0.06276726142697993 0  0.5507396469029935 0.3219409231578227 0  0.5504468037989405 0.09136885600634273 0  1.58125 0.41 0  1.631724228912893 0.3381867502687533 0  1.825608881788174 0.14499488549201 0  1.85625 0 0  1.44375 0 0  1.44375 0.41 0  1.85625 0.41 0  2.13125 0.41 0  0.7562500000000001 0 0  0.89375 0.41 0  0.4812500000000001 0 0  0.34375 0.41 0  0.4812500000000001 0.41 0  0.20625 0.41 0  0.06875000000000001 0 0  1.16875 0 0  0.61875 0 0  0.61875 0.41 0  1.03125 0.41 0  1.71875 0 0  1.99375 0 0  1.99375 0.41 0  1.340625 0.3489494290853124 0  1.134375 0.3489494290853123 0  1.700180620188976 0.3438659752031281 0  2.135782184673599 0.07126652247502523 0  1.668441847249787 0.2129203728327609 0  1.295782514339747 0.2378437748815763 0  0.8233075729931248 0.06842334294821524 0  1.409375 0.3520314716057996 0  0.403505597322782 0.182067236678212 0  0.378125 0.05794951541303489 0  0.3043468223249023 0.1518321115979534 0  2.129248544730567 0.1906135162504124 0  2.060771381434487 0.1989445750470348 0  2.013252586573865 0.1496169464686054 0  1.942766402200229 0.1734448904596831 0  1.895522487186454 0.06076163953489683 0  2.069553871656643 0.06605731020975725 0  1.274680914880868 0.3520219391081363 0  1.614713220494657 0.09473434380863296 0  0.7899021319497519 0.3149123934144827 0  0.69518737419149 0.0634051089053758 0  0.2971740475496061 0.2592172353407536 0  1.72990325744076 0.2380068107952482 0  1.356580098625191 0.2120393231351682 0  2.034370752044885 0.2668681600792073 0  1.51768709249349 0.3426260931494756 0  1.561883724969884 0.1650446847858835 0  1.197344062229598 0.2523725417393646 0  1.804085235518364 0.3468178408964637 0  1.817887819205233 0.2589243285818559 0  1.905897727272727 0.3485060975609756 0  0.6719798073392919 0.2688965171178177 0  0 0.05125 0  0.653125 0.35875 0  0.6396896119294488 0.1627615407790282 0  0.4274150154087412 0.1242548552168279 0  1.192836486056382 0.3562350748565544 0  0.8279124365364005 0.183856489168822 0  1.097485222388854 0.2083571153401724 0  1.28257088594801 0.2944411014911587 0  1.474860187679412 0.2504218616229368 0  1.406767003493824 0.2829282258560709 0  0.446875 0.04619219810344041 0  0.515625 0.04585361801037557 0  0.592043440706648 0.05125 0  1.845656689180403 0.1998310418452388 0  2.144958525570388 0.2909790873294231 0  0.6171090763650112 0.2492366900333857 0  2.2 0.15375 0  0.5145586920831158 0.3648371739579888 0  1.57794966442982 0.3540357145964566 0  0.721875 0.3633107922168974 0  0.0496154796471391 0.333125 0  0.5843750000000001 0.3662560860076676 0  0.5810878747760798 0.1474002776121195 0  1.508991196088596 0.1421783375065625 0  0.8840670607017558 0.2640994375393898 0  0.09776612425612034 0.2204896805326566 0  1.50436820029908 0.06143401634903343 0  1.223857000523521 0.0823554862453532 0  1.153316824384777 0.1289850171317837 0  2.148922302309752 0.1258841779285271 0  0.309375 0.04312325590431198 0  1.621993280276081 0.2841214267927899 0  1.550118654119087 0.2461998729100966 0  1.327182649291491 0.1216967252533594 0  1.051977450479407 0.1221382572915816 0  1.753125 0.04556020050186112 0  1.271875 0.04556020050186116 0  0.9816084133102366 0.05126138213476004 0  1.039051841454368 0.0572224914831029 0  0.9719230514536006 0.3480477870845102 0  1.94956388244759 0.1180512551534177 0  1.949997712993411 0.04965831614304109 0  1.771961817615021 0.1530278789497521 0  1.909246823951428 0.2812757146784527 0  0.2459536687882397 0.04668633953831142 0  1.948575539857022 0.2445328248721197 0  1.697271520964565 0.1233917627620729 0  0.7964897648514618 0.1211426571931604 0  1.065625 0.3689344961371042 0  1.085849084308977 0.3170853572226867 0  0.4702981435440001 0.260434880697798 0  1.577403511714593 0.05463601888079143 0  0.05622663515370135 0.05493816910862376 0  0.3267207591099919 0.3566194660323104 0  0.9003051618565143 0.3564049499960621 0  1.751571320346033 0.3651102912045228 0  0.1583785085108421 0.2994699345738728 0  0.1455283439499995 0.3542795598723423 0  2.2 0.35875 0  0.2347662494194072 0.298325008655211 0  0.1527284455616188 0.1065771775690181 0  0.1382139529076665 0.05427454456341477 0  0.8749341636311069 0.05110114999892954 0  0.643661668713109 0.05693499781019222 0  1.466879772203159 0.3611261772912453 0  1.990280163552011 0.3564754268533217 0  1.17471064520912 0.2990917256188288 0  0.5202693090594349 0.206382495511728 0  0 0.25625 0  2.2 0.25625 0  2.2 0.05125 0  0 0.15375 0  1.853978576207987 0.35875 0  0.9787513713939683 0.1487523696999336 0  0.240625 0.3722153812029779 0  1.515638456102889 0.2882700110184686 0  0.09048297387599738 0.3637717362208066 0  2.150453692751374 0.2387066338105111 0  1.323782677156475 0.04897634338873398 0  0.8074131292871642 0.3624701995505916 0  1.409375 0.03715320121951221 0  1.406484531114799 0.1087852750766809 0  1.134375 0.03715320121951218 0  1.627401732573545 0.04552157221025036 0  0.1170173172005315 0.1427610859166811 0  2.045405893604797 0.1105340662939892 0  1.255408269734577 0.1577307500159216 0  2.028125 0.03707597992059326 0  0.4743610090857199 0.1421513964721819 0  0.9354010469015898 0.250631300585664 0  0.04420832937638274 0.128125 0  0.8922386349349938 0.0992956419364831 0  0.1197849154434487 0.2663398672460083 0  1.248258025468107 0.2565907092181813 0  0.3746885856929528 0.370723531618974 0  1.203125 0.0366132337404304 0  0.5724622277005015 0.2751253816079333 0  0.3365425205162783 0.08395777655057959 0  2.072662025974815 0.2975086504196739 0  0.4581080832182547 0.3648371739579888 0  0.3874522734668214 0.2295447548840689 0  0.7827853612484443 0.04106550386289586 0  1.887722846421017 0.1760882698830035 0  1.472640588990488 0.1118278026240017 0  1.865937103925594 0.2604137786483804 0  1.463913572748262 0.2030442564990043 0  1.376426316059077 0.3186741374914345 0  0.6641993820150034 0.3141688596240831 0  0.2943117490824315 0.2130987422685822 0  0.3478153998082709 0.1666571081082676 0  0.3427990510599805 0.2575950027870776 0  0.7997118993855807 0.2216171933356366 0  
[...]
<PointData  Scalars="f_10-0"> 
<DataArray  type="Float64"  Name="f_10-0"  format="ascii">1.9434931059405837e-05  7.0312761143391045e-04  1.1068908129018475e-06  5.3796415858235228e-07  6.9140808493550450e-04  1.5023037690566009e-03  2.1150228438008749e-03  2.0952746936656725e-03  1.3979861477360907e-03  6.1104994405350617e-04  2.6377230025529476e-04  1.7521091323408595e-04  1.4108876390350004e-04  1.9296476956474646e-04  3.3362093672601239e-03  3.2007988768962105e-04  1.5068610556480166e-04  4.6500368601603437e-03  4.3179630983132640e-05  5.0732749857050766e-03  2.8994218337597507e-05  1.1600410158326710e-04  4.0934012358509816e-04  1.5902346297319407e-04  4.1123313359387676e-03  1.7801261441003442e-03  3.1690491212815931e-04  3.3374083376964847e-05  1.2767447499813389e-05  9.2405503641775533e-04  1.9605191579430138e-04  1.7695256937815687e-03  1.8324019526963602e-03  1.6668092139694160e-03  2.5149069854131760e-06  1.5633122492833646e-03  2.7842818056830215e-05  6.3311581831685444e-06  2.7109553350442247e-06  1.4809369103075894e-06  4.9052255361891374e-03  3.1624074951460343e-05  4.4238052654867227e-05  1.7716606490439655e-03  9.7177066465839815e-04  1.3225053593902313e-04  2.2068920588970816e-04  9.5690564286771455e-04  2.4459615447692954e-04  3.7959364927742639e-03  8.5872226543061688e-05  4.3861425733667352e-03  3.6326597565352935e-03  2.2827158417973997e-05  2.6484530274813040e-03  2.5459564249054128e-03  3.5408137531051987e-04  5.8299260308726281e-04  9.2706551925496143e-04  2.7405524577957583e-04  3.0796803979349289e-03  8.3643247285916579e-04  8.8239762705219057e-05  8.8041849748480530e-05  9.7081067036761759e-06  6.2250576806400002e-05  2.8802694051587502e-04  3.8424565854678896e-03  3.8144237746566816e-03  4.5924745661517093e-05  3.6215761013103900e-04  6.8924246711221334e-06  4.2522593331178289e-03  1.6901723135078852e-03  1.0706992152793540e-04  4.1317003396250948e-04  2.8236982877150960e-05  5.3344933299072025e-04  4.0114006103018961e-04  3.8742938787866416e-03  5.0135360345384349e-04  5.6785872769762413e-04  2.2973858617073435e-05  3.0267932241128352e-04  2.4620878070546132e-03  2.4707066407028360e-06  7.0448366011907940e-04  1.0325054827483350e-03  3.2506741686678395e-03  1.6105824687536359e-03  3.0319054347280592e-03  7.0276702572887349e-05  4.7037377451992171e-05  1.3956104612658073e-04  1.1405129065793602e-03  2.4364035149150721e-03  1.3616723347154467e-03  5.0461403516836187e-05  1.0837591725866205e-03  4.3818165475709532e-03  4.8589519327891144e-03  2.4234750147389405e-06  2.8812525092012375e-06  3.4528156566830415e-04  3.9649414083825999e-03  6.0496891902138124e-04  4.8366119688726091e-03  1.4418478764381302e-04  7.5396288166204678e-05  3.4472015144820052e-04  8.2764587350033646e-06  5.0235429889067835e-03  2.7322554100936994e-04  5.4195789683146554e-03  2.9435632988853737e-03  2.4040731817256275e-04  6.2636290070778808e-04  8.6335790559090677e-05  2.9550039283223330e-03  1.3977511695498596e-03  2.0505756842368961e-03  2.2184785545178616e-03  3.3015446315848567e-04  1.8258717075676227e-03  3.5271504838368397e-04  1.7623407290732929e-03  3.2730052775734541e-03  3.5913669499062903e-03  1.8555229165093910e-03  4.8458799250200005e-04  5.6913057377787162e-05  2.4547847161092936e-03  2.3350804065614228e-03  1.1849435529622368e-04  6.5481273996019355e-04  1.1838246459288072e-03  3.3176396960166283e-03  5.4093570494306904e-05  9.4472804518919845e-04  1.9968874691205926e-05  2.5649713961806913e-05  3.7343033738505903e-03  1.5120946663575255e-04  4.1330497459893490e-03  1.6561105496582204e-04  2.1896481725326581e-04  1.6528244318723064e-04  6.8187522460614773e-05  1.3461486501682085e-03  2.7505599129673422e-04  2.5162488614152096e-05  1.1282618755077871e-06  4.2517575796892819e-03  1.9955009461770126e-04  4.7797862533793490e-03  3.0460123436490866e-05  3.4471644992605918e-05  2.5972672444360656e-05  1.4739226425973600e-03  3.0263584206338735e-03  4.5182220938046894e-03  6.0617922244646285e-05  2.8355416461898933e-04  2.4017699095249875e-04  1.4601196628418113e-05  6.2210175107911318e-06  4.5615915110903190e-04  4.5144610990028553e-04  1.4281944126566244e-04  4.5029569588357012e-06  4.2451633300237296e-04  1.2452599222341010e-03  3.8890096134213590e-03  4.0721380844018141e-04  2.2857675044491480e-03  4.7959867411729281e-03  2.9116642039380860e-03  5.9451988592962138e-06  1.3650912391095706e-05  2.5432633280457943e-05  5.3148028095135810e-05  7.2055067687877534e-05  1.0329629969115748e-05  4.6364952882064868e-04  7.3588559008730100e-04  4.0279606146339321e-04  4.1614746869937033e-03  2.5968842774547646e-04  2.5498784797907111e-04  1.3567641981959261e-03  1.3988825285747972e-05  3.3553732951444341e-04  8.8699133408935097e-04  1.1902850747356249e-03  6.8076190442197660e-05  1.1860992906803509e-04  2.8132297796637147e-05  7.0754396351150998e-04  5.4247931473834640e-04  1.1118790506017091e-04  2.6676568918254547e-03  3.8029746715799949e-03  4.4171094755928705e-04  2.1869644989478778e-03  1.7569147140517325e-03  7.7977699682851343e-04  7.9724441459313902e-04  7.3697181506238911e-04  4.7562434087271522e-03  4.6209615923776762e-03  4.4489153012446025e-03  1.2377097354643825e-04  3.1459002160444440e-06  9.0584201343502373e-04  2.6738428887287629e-06  5.0841548068923304e-05  2.4389609527731169e-04  1.4065904659672838e-04  3.4425346258869216e-05  6.9882504814397538e-05  3.0578333021398017e-03  1.1829797551769496e-03  9.7264947427485237e-04  1.3410691341057517e-04  1.2329647739471213e-03  2.7789327947337458e-03  2.6688372812729475e-03  4.6678817100219760e-06  5.0333368539528965e-03  3.5429131835365806e-04  6.3190689290532228e-04  2.1363077091239870e-03  2.9440188653540671e-03  2.4150630478149938e-04  2.5873250720473170e-03  3.6864087235474923e-03  3.5141074892185570e-03  3.6153492995781719e-04  5.0118951530785964e-05  3.7785786396360355e-05  2.5320771425931698e-04  4.6839949171740849e-05  5.2236027829968461e-03  3.9410764757772412e-05  4.4406667417240119e-04  3.2886679828515305e-03  3.4928844755900012e-04  6.0373932916500184e-04  4.8316450966520496e-04  8.3728111689602947e-04  1.1466961984810003e-03  4.2158359116245847e-05  2.7785564762308160e-04  8.4006902584612161e-05  7.3259464973058738e-05  3.4873956811417222e-05  9.1731274069455488e-07  9.3385358250575596e-05  5.3973744744423300e-03  5.8283653441855493e-03  3.9140611158194547e-03  4.3132199106936013e-03  3.3427761584747454e-04  1.1147578661180191e-05  7.6357259382513448e-04  1.6294271862572240e-03  8.4679583364405170e-05  2.0568834044857074e-06  1.8003029158955720e-06  2.5348865545662865e-04  4.0559287422821182e-05  2.6854234348367917e-03  3.4576126213893390e-05  5.3048814136872323e-04  2.6167343177134552e-05  3.8875398975069355e-06  2.2920039690507090e-03  1.9660248303000408e-04  1.7187545421082316e-03  1.7955909638981906e-03  3.2448352417757884e-03  6.0007356467611350e-04  2.6274455623221810e-03  1.6864832206947458e-05  2.1231977555068310e-03  1.3670826447932523e-05  3.3367124629937678e-03  1.1723529845453239e-03  4.8078577557487132e-04  3.4606256557178795e-03  8.9227831613008265e-05  1.1189446385011452e-03  3.6671380360574398e-05  2.9315156655144569e-03  4.9536575416181850e-04  4.5265345580455824e-03  7.3789024547467582e-06  4.2604188732470814e-05  7.8522729228185193e-04  4.1377304558537645e-03  9.0796595411587916e-05  1.4331406246802746e-03  7.8759233137655729e-05  1.0999084599597521e-03  5.6933303416405829e-04  2.8994854121972837e-04  1.1010291198076353e-03  2.8318621412653060e-03  2.4468785520144969e-04  1.5228853018913900e-03  2.0311886504176358e-04  1.7710860157683285e-04  5.1337254323621799e-06  2.5126018512293016e-03  3.2932961131831319e-03  1.4803033345784631e-03  8.6483456459321613e-04  1.1932054621531137e-03  1.4239391634183745e-03  2.9009130778143879e-03  4.1631061579236202e-06  7.6781661601292789e-04  1.6596262554883646e-03  1.0870033159280533e-03  9.2568073447099475e-05  1.4330946248488981e-04  2.3558134254035806e-05  1.8021324802549096e-06  1.7641806744450061e-06  3.9223277021443298e-06  2.9463775481370484e-03  4.2280071588736050e-03  1.3962847079037125e-04  2.1573726570296142e-04  1.5249254855220887e-05  4.4115853232792324e-03  1.0235384204448682e-03  1.9997888297098709e-03  1.1523721628827960e-03  5.7836318706773698e-04  1.9341155584927565e-04  1.7833749394878932e-04  3.1515455169040760e-04  3.3906183643461497e-04  2.6548451663928026e-04  3.1854350296696855e-04  2.3644240172630342e-06  1.1498908405674454e-06  1.9415630420035314e-05  3.8794397332647351e-03  1.5806815498623547e-04  2.2218230902296262e-03  2.5599026324503605e-03  4.3984792228529798e-04  1.6301403285104592e-04  1.0814631319979290e-04  8.0450837002440142e-04  1.5170538931234536e-05  1.2287014516848913e-03  3.3719496670926831e-03  3.3266905488035229e-05  3.4594015691179337e-03  1.3693488097592325e-04  1.4190778119224892e-04  3.4668511288496505e-03  4.5072783653541358e-03  2.4566049009194504e-05  1.5353788510474810e-05  2.2354889426182148e-04  7.8453331313864470e-04  4.1224947245449095e-04  9.5834521266857231e-06  1.3753920787020894e-03  5.2422965794083985e-03  2.2024269844526378e-03  2.5719046095127405e-03  4.9461192355341392e-04  7.7796493201164757e-04  9.5514599717093471e-05  1.1345742407398617e-04  1.8504911473618860e-03  3.0442017471147198e-03  1.3361740672426859e-03  1.3848585809829021e-03  2.2506936966271967e-03  3.0998827505148655e-04  4.0641747749842736e-06  6.4680186488025760e-04  2.3299077843259841e-05  6.2976041182226362e-04  1.8042796128705516e-05  9.3054902904680120e-05  4.8282142315871079e-05  5.7374869989501511e-05  1.2398512619672820e-03  3.8631423024613934e-04  4.4204220070497073e-04  5.8927412133564258e-04  8.5563836856796752e-04  4.4913661847532298e-04  9.2289901969223076e-05  2.3038168863069441e-05  5.5862306524366622e-06  1.6071349082510159e-03  2.5860981236479580e-03  5.8079619202647595e-04  5.5043032842271933e-05  4.5839422608700440e-03  8.5625649910812647e-05  2.2631955176449507e-04  3.7728669146002438e-03  2.6523686891469803e-04  1.7364223752875204e-04  1.1498364005531642e-03  2.1555890959932972e-04  1.0830201172570030e-03  3.6025130366990686e-03  1.7178798799285304e-05  7.3634030202630104e-04  3.5577399388728234e-05  3.1326284376888809e-05  7.0564885035408773e-04  2.9794208914081275e-05  2.3436852186191895e-03  2.3418925940702816e-03  3.7292145950293975e-03  2.4181816006209724e-03  3.7458837531585071e-03  2.8051978292694546e-04  1.1386136949044689e-03  2.1355680893609202e-04  6.2596714591187298e-05  1.0005049643823194e-03  2.6646971254793865e-04  1.6287447149137674e-03  3.4538349199609073e-04  2.1886024110373339e-03  1.9796660183108864e-03  2.0228240580413542e-03  2.9829582830411473e-03  4.5863474515612964e-04  1.8568413030424734e-03  3.9466602575191029e-05  2.0814151930238583e-03  5.3008913177465649e-05  2.7815027645825409e-03  2.4653767461384475e-03  2.0098712641856550e-03  5.6810914086814521e-05  3.0369926217971944e-04  2.1234203157955740e-04  2.3307260797066580e-04  3.2988226155028877e-03  2.2370466702838551e-04  4.7063264010511428e-04  9.8705418836272994e-04  1.6325345346885652e-04  7.1844363976013000e-04  2.4381731253304991e-04  3.3211360408569239e-03  9.5709363593830053e-05  2.4675586470368412e-04  1.1561177690139673e-05  1.8144836194679913e-05  2.3567185763168153e-03  2.1425232186836106e-03  4.9752488067176864e-06  6.3024128041666904e-06  3.6793623374956430e-06  1.0097951967716248e-04  1.0358846156754942e-03  1.8053946835006949e-03  2.8208910945086429e-03  2.1642364946302009e-03  4.3752096650340752e-03  1.8200313326488550e-03  4.2216655724617647e-04  3.8171756395449963e-03  3.9131381075755188e-03  4.0407253182327693e-03  4.0460177614120825e-03  3.4360202822617034e-06  6.5102989712802306e-06  3.6594898348252664e-03  4.2090788441917852e-05  2.2209878746572368e-06  7.0694306957442394e-04  1.5772919844095771e-03  1.6646853427285668e-03  1.2405499297621150e-04  1.9227636606755424e-04  9.9471088454605814e-04  4.9252317817964795e-03  3.6334829024542186e-05  3.4109723456119860e-03  2.1763610581195299e-03  6.6851423476172085e-04  2.6890644562647037e-03  3.7951942310941023e-04  3.3418050303541557e-04  3.9626788712619207e-04  3.3016842651662588e-04  3.7571586945023706e-04  6.5501754999809766e-04  1.3208457356637456e-03  6.8162707768186770e-06  3.4986989767430018e-04  1.3861600132701864e-04  6.8050420557633098e-05  1.7330566040431980e-03  3.3701024726693501e-03  4.8605034933304888e-03  4.9685647262697223e-03  1.0371734853575098e-04  2.8903456410302842e-04  1.5337582378351216e-04  1.3100777832229048e-04  1.2562419277930949e-04  2.7494451057585049e-03  1.3374102967450387e-03  4.3161891009193907e-03  3.5071139585891708e-03  3.7895916737056240e-03  5.4412778525246325e-04  9.2985671159543962e-05  3.0905459211617716e-05  2.0567773885276410e-05  2.9028400930110079e-05  3.4996893083983130e-04  3.5192290852440155e-04  3.0941936973724157e-03  4.7373416831212540e-03  2.0044301705971742e-03  3.4712633106352021e-03  1.4956315577386353e-06  3.8692152170908966e-06  3.1866838730988519e-03  1.5642239648068013e-03  2.4888058733602686e-04  5.8838012143578150e-05  3.0314937043536761e-04  1.8293372913031613e-04  1.0180453854213712e-04  2.9615284497034174e-04  4.3185884151538071e-03  7.2596961180954517e-07  3.8819672800115800e-03  3.0974445989124536e-05  4.8448518744063501e-03  3.2449304278663057e-05  2.5470790415223605e-03  2.7653378970454824e-05  5.0107717997705057e-03  2.1119702781772287e-05  4.4535810841432209e-03  4.1829241325582129e-03  5.0669304986661048e-03  5.0265102924658265e-05  3.7667396861691456e-05  4.5862270289681196e-03  4.7176355882459246e-03  7.0822398841905256e-05  3.6971699211680335e-03  2.8380597004269048e-03  5.2002345524741929e-04  2.2127524971840626e-05  2.4373426574879494e-03  9.6065320630210922e-06  8.8362779550446939e-06  9.6683980818124604e-05  2.5515447776251850e-05  3.8907699546636004e-03  1.5855052479970975e-03  2.3046417070805049e-03  4.3638542317133823e-03  1.1373736056483532e-03  9.2308219924919167e-04  5.4292591489542665e-04  3.9572646894955887e-04  4.5093823538599261e-04  5.0035101718602790e-05  1.1709116609716298e-04  4.3196627932739210e-04  3.1935140381399098e-04  2.7599285301421251e-04  4.3077932965684913e-05  3.4411692851792997e-04  4.7016041905935868e-03  1.2208515610111059e-03  1.5908750214038616e-04  3.5584706163241945e-04  1.5100009354174243e-03  3.2500007500576451e-05  2.6690404134921560e-04  4.4585603205834438e-04  8.6378609683839306e-04  2.7421755263162952e-04  1.1400225074528762e-04  9.1026080706522593e-05  6.6212430052663151e-04  7.4233654823674199e-05  8.6663101000081088e-06  9.6039555103878204e-06  3.2901865734456279e-03  9.8667017889560122e-05  1.5982051276506727e-03  9.3195532892693356e-05  5.3802812407732780e-04  5.9675719809829817e-05  7.2373249409022630e-05  2.5022210632826633e-05  4.8651719358292384e-06  6.1167348937834843e-03  4.7156007258885354e-04  6.3538069754933812e-04  1.3188843737171375e-03  1.0700210824526278e-05  4.8688701563063325e-05  1.7446872839238677e-03  6.1413144263438004e-05  2.0057584044023358e-04  1.1034432060678615e-04  3.9896794198685494e-05  2.6858671168469374e-06  4.2526010908168436e-03  2.3432016266863444e-03  9.2258902655848547e-04  3.4178824013298375e-03  3.9011081792167108e-04  8.7905667002843380e-04  6.0538566929512329e-04  2.3282399878744261e-03  1.9470696392785941e-05  4.9894219265391284e-04  2.0503264516396816e-04  6.6741438737284503e-04  3.5187278535021857e-03  4.6592193645740073e-03  3.2248344165093702e-03  1.8177975215681548e-04  2.7905062834729824e-03  9.5350432850857785e-04  5.0467551746603227e-03  2.1744184381013022e-03  3.0879463993115672e-03  4.3293754576602134e-03  1.4729148197481191e-03  2.6253543043143894e-05  3.5787289343733195e-04  2.2162608550343254e-05  2.0155720930731228e-03  3.0175881513849123e-03  8.0041601174970806e-04  1.4841616108955178e-04  3.3337793360238284e-03  6.1762458813236767e-04  1.3880782875506790e-04  1.9488105539116696e-04  4.4763792863107147e-03  1.3972289703320256e-03  9.6218113707794459e-04  1.4089005071900044e-03  4.9674488521250510e-04  1.4226481274007871e-03  1.2723731647500353e-04  8.7411363161003867e-05  9.1323702287155861e-06  1.1478177522787740e-03  9.6100002083905434e-06  6.5133955838657192e-04  7.1352209223759188e-04  1.0353833283034337e-03  7.9601199830762559e-05  5.8275640228557912e-04  6.6740100394937170e-05  6.6653480161161090e-05  2.9856113619621791e-04  5.0893717650670302e-03  3.4575786491646481e-05  2.0482705497069906e-04  3.6075950137325313e-05  6.0997904344876419e-04  3.6489043525164770e-04  5.7526489998856958e-05  2.6538134159832917e-03  3.4587250539184606e-05  2.2198584347530163e-04  1.0759559423696004e-04  1.3588539825767741e-04  4.9694092078629805e-03  7.1198998600193108e-06  4.3502000189038454e-04  1.2483235386672210e-04  1.3176593521332727e-03  6.7592933344961799e-04  5.9357823406560709e-05  2.3011390503423930e-06  8.9001103572317942e-04  4.2312997549707725e-03  2.1600353606658538e-03  1.8830890699455696e-03  2.5562039284705200e-03  3.4395192105144432e-04  2.0994514933314716e-03  2.8992340124750570e-06  1.1748403208161789e-03  9.7814573076926278e-06  3.5153188427489491e-03  3.4674239681659415e-05  5.0007914221981841e-05  6.2511952749984726e-05  6.8566523208597220e-04  1.2140183329646136e-03  9.7201881097931750e-04  6.4279925520340116e-04  8.6874844195554868e-04  1.5005032374078094e-03  4.4492463059740821e-05  4.1280976559634249e-03  4.0704932174212421e-03  4.1110508465541396e-04  1.8578523937964378e-03  1.8272989040780325e-03  8.2111697345341032e-04  8.8631560434115832e-04  2.5104377993117807e-04  3.3493491388446850e-03  9.3842219868665077e-05  8.2362717545208370e-04  8.5595157532547940e-04  5.0482072146476934e-04  2.3310762942326720e-04  2.5999607368698389e-06  5.9033793273633883e-05  8.3908242305033120e-04  1.0284160556261806e-03  2.1696692684505963e-04  3.7823170419260546e-04  1.1719965889532933e-04  3.1646400659917793e-04  9.4113027245111862e-04  5.5472588741769580e-04  4.2419990722199017e-03  2.7432484839398827e-03  6.7661550426366485e-06  3.5727053670655960e-03  1.3696361906477871e-03  4.4628902234306348e-03  1.2992523091870949e-03  2.6833574690129268e-04  4.5357160962105668e-03  3.0343645960688253e-03  3.5037186966878683e-03  4.5498798851189379e-03  1.1709508128313525e-04  5.9012961971591337e-05  2.8359326223716423e-06  4.5067724613045081e-06  2.0133535297945677e-06  4.2747362595113605e-05  8.6417071172914346e-05  1.5411765146554838e-05  2.5628512648544831e-03  2.3802048665837031e-03  2.3706827265117280e-04  1.7480231561813945e-04  8.3513163949287838e-04  1.9417678671366464e-03  2.5649993835480203e-03  2.8786240845258874e-03  4.7143089582372998e-03  1.5885483495693944e-03  5.0658346878647504e-04  6.2306791338147315e-04  4.5984288460048370e-04  6.5180712517876418e-04  3.9918198735025242e-05  5.8053793523522066e-05  2.5166011871073281e-03  3.6072071232329051e-03  5.4017474603187156e-03  1.4358584561675811e-03  2.6002197766766142e-05  5.1139806225384762e-03  3.2245485230816390e-03  3.2446307697840298e-05  2.7277871556726117e-03  2.6022002019482708e-06  1.7347319985194695e-04  1.1611547290674853e-04  3.1171438879260498e-04  2.1573668268871953e-04  1.1374249039091838e-04  6.7412309333456552e-05  4.6562404392943149e-05  6.0910637546971792e-04  3.3891322970098546e-05  4.0469756552337327e-05  5.3731011727892559e-03  6.7300211160932254e-03  5.5865394966178335e-05  8.6962145212371094e-06  2.5930493211498521e-04  7.6801575105927330e-04  5.0450643926305914e-04  6.1234915681089629e-04  5.7562782409001562e-04  2.9206482863074687e-03  6.7235528888891401e-04  1.5976573964337457e-04  4.9255542130873852e-05  7.2465324866745313e-05  5.2779330781341029e-05  3.5835594126360297e-05  5.7609287374749631e-05  3.1547934814595835e-03  1.1506143545706570e-04  2.1711587952343908e-03  2.8498454402133309e-04  3.6846426835401456e-04  6.2051445615286826e-04  2.6410355614528932e-03  4.6726898826539593e-03  1.0361060870572984e-04  5.0481118476061269e-03  6.5807171453819042e-04  1.7518134109503578e-03  2.5747393073417520e-04  3.4265502062096666e-04  2.6440627593505