<?xml version="1.0"?>
<VTKFile type="UnstructuredGrid"  version="0.1"  >
<UnstructuredGrid>
<Piece  NumberOfPoints="2446" NumberOfCells="4585">
<Points>
<DataArray  type="Float64"  NumberOfComponents="3"  format="ascii">0 0.41 0  0 0 0  2.2 0 0  2.2 0.41 0  0.2404508497187474 0.2293892626146237 0  0.25 0.2 0  0.2404508497187474 0.1706107373853764 0  0.2154508497187474 0.1524471741852423 0  0.1845491502812526 0.1524471741852423 0  0.1595491502812526 0.1706107373853764 0  0.15 0.2 0  0.1595491502812526 0.2293892626146237 0  0.1845491502812527 0.2475528258147577 0  0.2154508497187474 0.2475528258147577 0  1.1 0 0  1.1 0.41 0  0 0.205 0  0.55 0 0  0.55 0.41 0  0.275 0 0  0.275 0.41 0  1.65 0.41 0  1.65 0 0  0.8250000000000001 0.41 0  0.8250000000000001 0 0  1.375 0 0  1.375 0.41 0  1.925 0 0  1.925 0.41 0  1.5125 0.205 0  1.7875 0.205 0  0.6875 0.205 0  0.9625000000000001 0.205 0  1.2375 0.205 0  2.2 0.205 0  0.4687002074688797 0.2068568464730291 0  1.99375 0.2152743902439024 0  2.0625 0 0  2.0625 0.41 0  2.2 0.3075 0  0.4125 0 0  0.4125 0.41 0  1.7875 0.41 0  1.375 0.1486128048780488 0  1.5125 0 0  1.7875 0 0  1.5125 0.41 0  0.8250000000000001 0.2613871951219511 0  0.9625000000000001 0.41 0  0.9625000000000001 0 0  0.6875 0.41 0  0.6875 0 0  0.1375 0 0  0.1375 0.41 0  1.2375 0 0  1.1 0.1486128048780487 0  1.2375 0.41 0  1.65 0.1486128048780487 0  1.126715909090909 0.2793064024390244 0  1.676715909090909 0.2793064024390244 0  0.8517159090909092 0.1306935975609756 0  1.348284090909091 0.2793064024390244 0  0.34375 0.3032389320646208 0  1.894702181800738 0.1282910975492754 0  2.092797818199262 0.1282910975492754 0  1.85625 0.3075 0  0.61875 0.3075 0  0.61875 0.1025 0  0.3648540804333487 0.1240075933101478 0  0 0.3075 0  0 0.1025 0  2.099172119769978 0.25625 0  0.48125 0.09238439620688085 0  0.5781001037344399 0.2059284232365146 0  0.48125 0.3196743479159776 0  0.7265881057911006 0.3055240343720796 0  1.99375 0.08395950269330846 0  1.459960956013612 0.3075 0  1.569025960719943 0.2986889805672169 0  0.75625 0.08213100772579164 0  1.03125 0.3278689922742084 0  0.923871252904788 0.3078247185783941 0  1.959375 0.3126371951219512 0  1.749222215368287 0.1025 0  1.275777784631713 0.1025 0  2.2 0.1025 0  1.225938124459196 0.3075 0  1.550777784631713 0.1025 0  1.000777784631713 0.1025 0  1.44375 0.07430640243902442 0  1.16875 0.07430640243902437 0  1.899250267340833 0.2229966846119207 0  0.1020898364287272 0.3140258291809757 0  1.766482954545455 0.2934032012195123 0  0.3405058858996321 0.2119987970531874 0  0.7710785630958338 0.1710968191298857 0  1.046078563095834 0.2389031808701144 0  0.2 0.3400647632937836 0  1.421109702350723 0.2261157654379721 0  0.2800464974185557 0.08982544815605742 0  0.098916018031319 0.09171660955420841 0  2.13125 0 0  2.118919042110979 0.3422084711244843 0  1.30625 0.41 0  0.89375 0 0  1.597888256393107 0.2173787389261347 0  0.20625 0 0  1.829299675393195 0.07400700849299596 0  1.71875 0.41 0  1.16875 0.41 0  2.038220665644273 0.332420740103091 0  0.34375 0 0  0.417496017710808 0.2696595573092803 0  0.2 0.07687845740457822 0  0.9295982307099278 0.1343158415898188 0  0.07390688010811153 0.1697064032433452 0  0.5238366813727013 0.2578302467013575 0  0.05452951551825875 0.25625 0  0.5229630068078351 0.1548816096928243 0  1.452769549894695 0.1548122580621249 0  1.369219062229598 0.07430640243902442 0  1.30625 0 0  0.8504409521244898 0.3356935975609756 0  0.8821881244591965 0.205 0  1.720943423819132 0.1714577452753128 0  1.157188124459196 0.205 0  1.094219062229598 0.07430640243902437 0  1.03125 0 0  1.304056576180868 0.1714577452753128 0  1.67579304192913 0.07430640243902437 0  0.2751941921308361 0.3346083473122598 0  1.209670467133757 0.1362100266964769 0  1.025335513626278 0.1700681449722324 0  0.7562500000000001 0.41 0  1.58125 0 0  0.7567170593862014 0.2409196493502535 0  0.6926714215682891 0.1272249611432207 0  0.4139715849905988 0.3397932387114203 0  0.9840787304190477 0.2717749043358119 0  0.06875000000000001 0.41 0  0 0.35875 0  0.9281250000000001 0.06276726142697993 0  0.5507396469029935 0.3219409231578227 0  0.5504468037989405 0.09136885600634273 0  1.58125 0.41 0  1.631724228912893 0.3381867502687533 0  1.825608881788174 0.14499488549201 0  1.85625 0 0  1.44375 0 0  1.44375 0.41 0  1.85625 0.41 0  2.13125 0.41 0  0.7562500000000001 0 0  0.89375 0.41 0  0.4812500000000001 0 0  0.34375 0.41 0  0.4812500000000001 0.41 0  0.20625 0.41 0  0.06875000000000001 0 0  1.16875 0 0  0.61875 0 0  0.61875 0.41 0  1.03125 0.41 0  1.71875 0 0  1.99375 0 0  1.99375 0.41 0  1.340625 0.3489494290853124 0  1.134375 0.3489494290853123 0  1.700180620188976 0.3438659752031281 0  2.135782184673599 0.07126652247502523 0  1.668441847249787 0.2129203728327609 0  1.295782514339747 0.2378437748815763 0  0.8233075729931248 0.06842334294821524 0  1.409375 0.3520314716057996 0  0.403505597322782 0.182067236678212 0  0.378125 0.05794951541303489 0  0.3043468223249023 0.1518321115979534 0  2.129248544730567 0.1906135162504124 0  2.060771381434487 0.1989445750470348 0  2.013252586573865 0.1496169464686054 0  1.942766402200229 0.1734448904596831 0  1.895522487186454 0.06076163953489683 0  2.069553871656643 0.06605731020975725 0  1.274680914880868 0.3520219391081363 0  1.614713220494657 0.09473434380863296 0  0.7899021319497519 0.3149123934144827 0  0.69518737419149 0.0634051089053758 0  0.2971740475496061 0.2592172353407536 0  1.72990325744076 0.2380068107952482 0  1.356580098625191 0.2120393231351682 0  2.034370752044885 0.2668681600792073 0  1.51768709249349 0.3426260931494756 0  1.561883724969884 0.1650446847858835 0  1.197344062229598 0.2523725417393646 0  1.804085235518364 0.3468178408964637 0  1.817887819205233 0.2589243285818559 0  1.905897727272727 0.3485060975609756 0  0.6719798073392919 0.2688965171178177 0  0 0.05125 0  0.653125 0.35875 0  0.6396896119294488 0.1627615407790282 0  0.4274150154087412 0.1242548552168279 0  1.192836486056382 0.3562350748565544 0  0.8279124365364005 0.183856489168822 0  1.097485222388854 0.2083571153401724 0  1.28257088594801 0.2944411014911587 0  1.474860187679412 0.2504218616229368 0  1.406767003493824 0.2829282258560709 0  0.446875 0.04619219810344041 0  0.515625 0.04585361801037557 0  0.592043440706648 0.05125 0  1.845656689180403 0.1998310418452388 0  2.144958525570388 0.2909790873294231 0  0.6171090763650112 0.2492366900333857 0  2.2 0.15375 0  0.5145586920831158 0.3648371739579888 0  1.57794966442982 0.3540357145964566 0  0.721875 0.3633107922168974 0  0.0496154796471391 0.333125 0  0.5843750000000001 0.3662560860076676 0  0.5810878747760798 0.1474002776121195 0  1.508991196088596 0.1421783375065625 0  0.8840670607017558 0.2640994375393898 0  0.09776612425612034 0.2204896805326566 0  1.50436820029908 0.06143401634903343 0  1.223857000523521 0.0823554862453532 0  1.153316824384777 0.1289850171317837 0  2.148922302309752 0.1258841779285271 0  0.309375 0.04312325590431198 0  1.621993280276081 0.2841214267927899 0  1.550118654119087 0.2461998729100966 0  1.327182649291491 0.1216967252533594 0  1.051977450479407 0.1221382572915816 0  1.753125 0.04556020050186112 0  1.271875 0.04556020050186116 0  0.9816084133102366 0.05126138213476004 0  1.039051841454368 0.0572224914831029 0  0.9719230514536006 0.3480477870845102 0  1.94956388244759 0.1180512551534177 0  1.949997712993411 0.04965831614304109 0  1.771961817615021 0.1530278789497521 0  1.909246823951428 0.2812757146784527 0  0.2459536687882397 0.04668633953831142 0  1.948575539857022 0.2445328248721197 0  1.697271520964565 0.1233917627620729 0  0.7964897648514618 0.1211426571931604 0  1.065625 0.3689344961371042 0  1.085849084308977 0.3170853572226867 0  0.4702981435440001 0.260434880697798 0  1.577403511714593 0.05463601888079143 0  0.05622663515370135 0.05493816910862376 0  0.3267207591099919 0.3566194660323104 0  0.9003051618565143 0.3564049499960621 0  1.751571320346033 0.3651102912045228 0  0.1583785085108421 0.2994699345738728 0  0.1455283439499995 0.3542795598723423 0  2.2 0.35875 0  0.2347662494194072 0.298325008655211 0  0.1527284455616188 0.1065771775690181 0  0.1382139529076665 0.05427454456341477 0  0.8749341636311069 0.05110114999892954 0  0.643661668713109 0.05693499781019222 0  1.466879772203159 0.3611261772912453 0  1.990280163552011 0.3564754268533217 0  1.17471064520912 0.2990917256188288 0  0.5202693090594349 0.206382495511728 0  0 0.25625 0  2.2 0.25625 0  2.2 0.05125 0  0 0.15375 0  1.853978576207987 0.35875 0  0.9787513713939683 0.1487523696999336 0  0.240625 0.3722153812029779 0  1.515638456102889 0.2882700110184686 0  0.09048297387599738 0.3637717362208066 0  2.150453692751374 0.2387066338105111 0  1.323782677156475 0.04897634338873398 0  0.8074131292871642 0.3624701995505916 0  1.409375 0.03715320121951221 0  1.406484531114799 0.1087852750766809 0  1.134375 0.03715320121951218 0  1.627401732573545 0.04552157221025036 0  0.1170173172005315 0.1427610859166811 0  2.045405893604797 0.1105340662939892 0  1.255408269734577 0.1577307500159216 0  2.028125 0.03707597992059326 0  0.4743610090857199 0.1421513964721819 0  0.9354010469015898 0.250631300585664 0  0.04420832937638274 0.128125 0  0.8922386349349938 0.0992956419364831 0  0.1197849154434487 0.2663398672460083 0  1.248258025468107 0.2565907092181813 0  0.3746885856929528 0.370723531618974 0  1.203125 0.0366132337404304 0  0.5724622277005015 0.2751253816079333 0  0.3365425205162783 0.08395777655057959 0  2.072662025974815 0.2975086504196739 0  0.4581080832182547 0.3648371739579888 0  0.3874522734668214 0.2295447548840689 0  0.7827853612484443 0.04106550386289586 0  1.887722846421017 0.1760882698830035 0  1.472640588990488 0.1118278026240017 0  1.865937103925594 0.2604137786483804 0  1.463913572748262 0.2030442564990043 0  1.376426316059077 0.3186741374914345 0  0.6641993820150034 0.3141688596240831 0  0.2943117490824315 0.2130987422685822 0  0.3478153998082709 0.1666571081082676 0  0.3427990510599805 0.2575950027870776 0  0.7997118993855807 0.2216171933356366 0  
[...]
<PointData  Scalars="f_10-0"> 
<DataArray  type="Float64"  Name="f_10-0"  format="ascii">3.7133907986146167e-04  1.4391729528239999e-03  3.1254096371055966e-03  1.2871700717856530e-03  1.1975576639493778e-03  2.0401493630563313e-03  2.6855008405234069e-03  2.6780805602076175e-03  1.9718898335383808e-03  1.1696831741701778e-03  8.0472185160821764e-04  6.9733772638008056e-04  6.4858504211172776e-04  6.9033113835506447e-04  4.3587539061640543e-03  6.9649731858059563e-04  6.8612610540075758e-04  5.3459206043348449e-03  4.1387240238496240e-04  5.7756097749715862e-03  4.0221348584901549e-04  1.0461012176550982e-03  3.6336392686371626e-03  5.1808042278966425e-04  4.8248847460617477e-03  3.9644366135205538e-03  8.8071267585838257e-04  3.3524500903636084e-03  1.1820506222334436e-03  2.3317441477586128e-03  2.2886345944856446e-03  2.2927566925583856e-03  2.3594391039137995e-03  2.3604937103590315e-03  2.2131508890011259e-03  2.0875509617030181e-03  2.1645253250997800e-03  3.2256678934676629e-03  1.2414949906829069e-03  1.5368699655995506e-03  5.6005094317093150e-03  4.0706752523154657e-04  1.1171509807320844e-03  3.0506222370438076e-03  3.7911932402908662e-03  3.4881732212701621e-03  9.6652616766741088e-04  1.4075166374273587e-03  6.0352057491448307e-04  4.5836310543867801e-03  4.5000026762366080e-04  5.0841039525147654e-03  4.3556724011968020e-03  3.8300163224748223e-04  4.1508797847235263e-03  3.2190652271967611e-03  7.9117431611312804e-04  2.8939418064222286e-03  1.3851534914769634e-03  1.5974073165237858e-03  3.6985558678894483e-03  1.4880363406432880e-03  5.2268436282603044e-04  2.9227736220517188e-03  2.8042597018558928e-03  1.4482849431829245e-03  6.9792905421522781e-04  4.4914376870674741e-03  4.4428905783738312e-03  4.5254597130006354e-04  1.0335111882525103e-03  1.8399600336251006e-03  4.9111400758996187e-03  2.2141770534058487e-03  5.1387530165102762e-04  8.2175326795295002e-04  3.1221136275652751e-03  1.2949447440417053e-03  1.4064247159707561e-03  4.5398064106124203e-03  8.9246371695208442e-04  9.7138392813999838e-04  1.4517809862717543e-03  3.2112733587388673e-03  3.6343725543317258e-03  2.8926257983322877e-03  1.1742848476400235e-03  3.3763580671841904e-03  3.9391935956973661e-03  3.6849619359762211e-03  4.0093056267460504e-03  2.1080179133762052e-03  4.5610442233458531e-04  1.5138733614137039e-03  1.6550079837541628e-03  3.0036388144346012e-03  1.8533642469417094e-03  4.6224219765565082e-04  2.0886071291258304e-03  5.0204712397592969e-03  5.5318040928079440e-03  3.1675682426936854e-03  1.3694606866019030e-03  8.3725708400871079e-04  4.7024909128636485e-03  2.1853469871640401e-03  5.5470237360161550e-03  3.3041630491874537e-03  1.0834506721253683e-03  7.4399945139611825e-04  1.3813610422718275e-03  5.7206894693393661e-03  7.2169838272258171e-04  6.0700619488709313e-03  3.5653002212036869e-03  8.2119934943519627e-04  1.0845714664575222e-03  5.5462882966571866e-04  3.5506023848585894e-03  2.9353543479026297e-03  3.7669147846285602e-03  4.0584737153687494e-03  7.1322872050867767e-04  2.3480578623919731e-03  2.6359788171929888e-03  2.3642185625031877e-03  4.1053490824069653e-03  4.4664687226089938e-03  2.7995713099574306e-03  3.4462959753057084e-03  4.7528649007271906e-04  3.3128851125953734e-03  2.9273049625928652e-03  4.7940361073331347e-04  3.7096944995238411e-03  1.6594346542329415e-03  3.9401056312788028e-03  4.5329680780119020e-04  1.3862413763423319e-03  3.7328495524366996e-04  3.9190511118787467e-04  4.4407463735308371e-03  5.5312030697082066e-04  4.7925251026089974e-03  1.0069386125785358e-03  1.1914481647269646e-03  2.8308697657019968e-03  3.4187582873030408e-03  3.8778972887462625e-03  9.2530721916479568e-04  1.1525287500153574e-03  1.2681966723332443e-03  4.9540466045450574e-03  5.5703226333093687e-04  5.4751019293614389e-03  4.0601788982527265e-04  4.0774723991968901e-04  3.9319633410880644e-04  2.2069829930852396e-03  4.2508982819417394e-03  5.2147217210497272e-03  4.2816176901815009e-04  6.4755613131849664e-04  3.5600401297132618e-03  3.2890408718041983e-03  1.2140649496697169e-03  9.7721377337947070e-04  8.4612273202933378e-04  1.1971089655466126e-03  3.0631172927294880e-03  2.2264844669414169e-03  1.9331160407880896e-03  4.5683599641567572e-03  1.0088126281971291e-03  2.8498974048193826e-03  5.4734131209886920e-03  3.5074691184018955e-03  2.3364550929281637e-03  2.2877347520809050e-03  2.6965923760479257e-03  2.5341443696535446e-03  3.2978329739168015e-03  3.1335919475789292e-03  9.2495670486385684e-04  3.3781925387654662e-03  8.0205234137073055e-04  4.8393685887951586e-03  7.3814782214231937e-04  1.9748451345305597e-03  2.2605843938555167e-03  1.7581826851439089e-03  1.1105839477517825e-03  2.7683390866304592e-03  1.7290554980737046e-03  1.2326338223158477e-03  1.7933159944101427e-03  1.2709582328868626e-03  1.1520862449766317e-03  1.2610007008693356e-03  4.8869605924730004e-04  3.2487300863110816e-03  4.4352941101578275e-03  8.5301894278367988e-04  2.7369670350652830e-03  2.3133825753977287e-03  1.3152519815621451e-03  1.8209553670060440e-03  1.4770128470276110e-03  5.4414311538362632e-03  5.3066747475562868e-03  5.1330310166177728e-03  2.3265257558960379e-03  1.6180148968686445e-03  1.3732519824469860e-03  2.5853026671927579e-03  4.3228025736096376e-04  1.0949186924513296e-03  5.1338936951710339e-04  4.1944056005176959e-04  4.4756285218832542e-04  3.6602583487459033e-03  3.0414095416787809e-03  1.4202032156240612e-03  6.5274985940570816e-04  3.6858775030250367e-03  3.8763673572675761e-03  3.4496272902910050e-03  2.7875477744603019e-03  5.7184967347710140e-03  1.5411808893333306e-03  1.8775339527318620e-03  3.3905877154975584e-03  3.6313480878000849e-03  3.4837436853833231e-03  4.0398770363139934e-03  4.4366004786803026e-03  4.3088359928930148e-03  7.3694119084418569e-04  2.9599324528307523e-03  3.2856127128042542e-03  2.7888785795978344e-03  1.6358644134980163e-03  5.9071798180008218e-03  1.9236552717872351e-03  3.0914440709490271e-03  3.9169710412823673e-03  7.2244304193037521e-04  1.0105836198507278e-03  9.3891743115202125e-04  3.6337200158698089e-03  1.8609206658795879e-03  4.3695081559984598e-04  6.4834669931494954e-04  1.1483567327017772e-03  5.2004599034063742e-04  4.2050497362602842e-04  1.3439796506494346e-03  5.5759347642547286e-04  6.0288731579504424e-03  6.5242095467848366e-03  4.6150314963037849e-03  4.9947850684347907e-03  1.0076792848968993e-03  1.2785095098057212e-03  1.2153157549351170e-03  2.1536708561968776e-03  5.4990774654460790e-04  1.8433374334284583e-03  3.0799921909130381e-03  8.6044270624954778e-04  1.2158027468563519e-03  3.2969096639866424e-03  4.1823320778754629e-04  1.4717073851125211e-03  3.9375164170099791e-04  1.9677335335488389e-03  3.9587990144671582e-03  5.6654278106634654e-04  3.8860548424943264e-03  3.4523073517301914e-03  4.2635526463461332e-03  3.6115375657520448e-03  3.2294248677923448e-03  2.9448514961802740e-03  3.0032479495613940e-03  3.2399040411042481e-03  3.9499629595207983e-03  1.6367941228842425e-03  1.1192959954403575e-03  4.1193630127521214e-03  5.6052806111936957e-04  1.6961641606229965e-03  4.2156139131840421e-04  4.1620169653320245e-03  9.3487284107221828e-04  5.1813348703438353e-03  1.5659645103190327e-03  4.2669475021490038e-04  1.2756811118480188e-03  4.8308052356667609e-03  2.5313190941215562e-03  3.3661325243346616e-03  1.7869856442867703e-03  2.3613152658040889e-03  1.1717830584185276e-03  6.9322778938826920e-04  1.6179511094812778e-03  3.4224225943517818e-03  7.1041597600595015e-04  2.0226020014115255e-03  1.5793272188678621e-03  1.8827274403221430e-03  3.1736713187809512e-03  3.0845228946713350e-03  3.9170945928471137e-03  1.9777143929042228e-03  1.2989107427358328e-03  1.6751865257246177e-03  2.5468268331311564e-03  3.4981247892626357e-03  1.2276555880000636e-03  2.9953489746032493e-03  2.1779156575276234e-03  1.5588354163129383e-03  1.4616548712686000e-03  6.7311882592787590e-04  1.8063047486428249e-03  1.4202339419304485e-03  1.2553420818137220e-03  1.2930406306187739e-03  3.6670107895067339e-03  4.9184292516220515e-03  1.0268227470085324e-03  3.1029473742037465e-03  1.5268124460246211e-03  5.1279181591031061e-03  1.8458082949775407e-03  2.7020103202955777e-03  3.8344477121517837e-03  2.4884348733603579e-03  9.8782836096104388e-04  5.3622917311933467e-04  3.5965898711407557e-03  3.5321179181890933e-03  6.2641118689376425e-04  6.8655040346036773e-04  3.1330427179893810e-03  1.3001852859242690e-03  3.7131057110915039e-04  4.5349225499013088e-03  5.2748195305011777e-04  2.7793608037821292e-03  3.1414514946387722e-03  1.9318505704294974e-03  3.4432387828338424e-03  3.1687893766729975e-03  3.7508529917256389e-03  1.2294375539211109e-03  1.7383819551685848e-03  3.9777230385859433e-03  1.1340078842823717e-03  4.3554116482627204e-03  1.3177307627838422e-03  1.0975644255732354e-03  4.1572188191260108e-03  5.1724628807978696e-03  3.8867929764059420e-04  2.6541256604681253e-03  5.8168210838220580e-04  2.3233109548667316e-03  8.4098601429268330e-04  2.5111709322039048e-03  3.8089753668532219e-03  5.9409295221286200e-03  2.7998258183547773e-03  3.1484922476386241e-03  1.7671657682083860e-03  1.2161671809716498e-03  5.2180104153266426e-04  5.3209649134917350e-04  2.3768899021039038e-03  3.8869646286965147e-03  1.8179742149077767e-03  1.9077651948628219e-03  2.9161209289500088e-03  8.6886047287867366e-04  2.5192833594836232e-03  1.1934269404873198e-03  3.2617940568526122e-03  1.0464587094967464e-03  1.1675874145881371e-03  3.3875469564245840e-03  3.3849737925610206e-03  3.1765525363730380e-03  3.4284382278466003e-03  3.3406891552369635e-03  3.5917843168443023e-03  3.2462312165531379e-03  1.5909724732654205e-03  8.4274356475320771e-04  5.3891433002900319e-04  3.8347701991219392e-04  1.2616430065722035e-03  3.0429194734891106e-03  3.1624725962018851e-03  9.8196321846503207e-04  4.7786577509431046e-04  5.2727051768054435e-03  5.4434054478334011e-04  3.3364143566676839e-03  4.4262949745361478e-03  6.2995575458735405e-04  5.5694816582263680e-04  2.6884876707070453e-03  8.0564386973542255e-04  1.5785794204127802e-03  4.2640032759380221e-03  3.1322632493006324e-03  1.5868265832988864e-03  4.2061001721690458e-04  4.0941679875184490e-04  1.8259180832874227e-03  4.0442902475739219e-04  2.9057338566621871e-03  2.9060385235592000e-03  4.3633587315076846e-03  2.9852077211814407e-03  4.3689643424233773e-03  7.1155805588808923e-04  1.6300860965570920e-03  5.7845755238940049e-04  4.9724537581997302e-04  3.7493217818403693e-03  2.3273834636487211e-03  2.3992611875342713e-03  2.9623105924624698e-03  3.2566063153008956e-03  3.4570578515270224e-03  3.9506721872062710e-03  3.7222028342336327e-03  2.7750188289097891e-03  2.9653914926113432e-03  2.7205058298833463e-03  2.7075532784478153e-03  4.5879433865588551e-04  3.7165052877895137e-03  3.4553999306358449e-03  2.6881063801455852e-03  4.7681790706193510e-04  1.3020108598164333e-03  1.3074153507532538e-03  6.8714436207317677e-04  3.9009274740310230e-03  7.0965908743948736e-04  1.1683183012668001e-03  1.4749396041281585e-03  1.0638957496728332e-03  2.5877138035804090e-03  1.0037480732613807e-03  3.9417417586717993e-03  3.4532543101711147e-03  6.3244129059538605e-04  1.9674471922562068e-03  2.0341578934945613e-03  3.7463625666795211e-03  2.7088722024960345e-03  1.6091738659086403e-03  2.0746546745503969e-03  2.2235869725784271e-03  1.2960904636885532e-03  3.6165051134759963e-03  2.3416409420513869e-03  3.4621369949696594e-03  2.7277068890696277e-03  5.0667229635812557e-03  3.7301988158577469e-03  8.0714535971684312e-04  4.5660248421406698e-03  4.6378917369473138e-03  4.7637754871349778e-03  4.7501732427263519e-03  2.9553628553492133e-03  2.9316058444692102e-03  4.4685573807372410e-03  2.2315117351062743e-03  1.2825200550150393e-03  1.1424178104091211e-03  2.1973672308752577e-03  2.1742110322415498e-03  2.9375122894066967e-03  2.5971111582395656e-03  1.4726208457382442e-03  5.6069524367283229e-03  4.1798752025498594e-04  4.0770812283866063e-03  2.7402812617498304e-03  1.0809866029497411e-03  3.2750466960788176e-03  7.7360114170269315e-04  7.2057531547944920e-04  8.7897677834584043e-04  8.5640748849942277e-04  9.2586793886045707e-04  1.0789775971585354e-03  2.5856228662461925e-03  2.6565983112551371e-03  7.6614983127022078e-04  4.9856756973208367e-04  4.5079197524581729e-04  2.2730296096852083e-03  3.9823366549528614e-03  5.5485877004723709e-03  5.6647350804738851e-03  5.0266164537973170e-04  7.1413576183140337e-04  5.4931988875636889e-04  5.1733285216820342e-04  2.6366742234465914e-03  4.1186857772434341e-03  1.8181334104823256e-03  4.9824783845662897e-03  4.1324301341227453e-03  4.4325249029953297e-03  1.1984014220836460e-03  1.0633758056143173e-03  2.4668585051640605e-03  2.4344863670077484e-03  1.6716623963673855e-03  8.1238326247399996e-04  7.3253772407168359e-04  4.2199572614957355e-03  5.4266645167246330e-03  4.0103027486084932e-03  4.4103338550576963e-03  3.1404256774642866e-03  3.1970049102851943e-03  4.3032740871159552e-03  3.9189531424015326e-03  9.4626426512851847e-04  1.1006860262282967e-03  6.7230814072223436e-04  3.5223044047768548e-03  4.6451077553821428e-04  9.0214839337531764e-04  5.0180526019441120e-03  1.2814328812490734e-03  4.6396836734868144e-03  4.0675641632932597e-04  5.5402833235358613e-03  4.0695782371181734e-04  3.2758599134828387e-03  3.9829293014826550e-04  5.7173322796371072e-03  3.7727266007337037e-04  5.1508060802420465e-03  4.8893969336314532e-03  5.7662351270786113e-03  4.1905718360825514e-04  4.0953993922229190e-04  5.2825492444594346e-03  5.4134164289504003e-03  4.3619328910701998e-04  4.5211528822850112e-03  4.2017893610910764e-03  3.6715645855319853e-03  3.3210376811404147e-03  4.1041642165586924e-03  3.2569530757998459e-03  1.1969231410213978e-03  1.1113067539637411e-03  2.9419753826947855e-03  4.5630574495656101e-03  3.2934379739232287e-03  3.0305826822470132e-03  5.0173780664821942e-03  1.8735274323130454e-03  1.5397841645326334e-03  9.5903085141438836e-04  1.2789677000927633e-03  1.2489053360300471e-03  3.3593248774940639e-03  6.0789843237736443e-04  1.0953630292482581e-03  9.3409664094853885e-04  1.8026785198533282e-03  1.4218754324238519e-03  2.2791707230418695e-03  5.3442108597049117e-03  1.7067091539782005e-03  3.1011934763771083e-03  1.8874044579286775e-03  2.3369679785311382e-03  1.4522714903323702e-03  9.7644166971058472e-04  8.4588951704539159e-04  1.3010227366083075e-03  6.3714803496045275e-04  6.1375291309833562e-04  5.4531188950139901e-04  3.6782743543302453e-03  4.4670042690500718e-04  3.2149246458023344e-03  2.9996528941292977e-03  4.0178443430196340e-03  4.6853859646823559e-04  2.6720418722655250e-03  5.7076959960422028e-04  9.8994031862547011e-04  2.2971114665674224e-03  2.6969668996680751e-03  3.9005367499424617e-04  1.4064469187034315e-03  6.7917378227714586e-03  8.9781964156204330e-04  1.0692858236827161e-03  1.7975055571843889e-03  1.5476892035849385e-03  1.1455881168180831e-03  2.2847234172596723e-03  1.3081875276201051e-03  1.4112453001952152e-03  2.0082966912639082e-03  3.1639990372737416e-03  1.7701248500760981e-03  4.9078594156561376e-03  2.9160137719319414e-03  3.1093307789700785e-03  4.0593857522229883e-03  7.7147298797147876e-04  3.4535831613787425e-03  3.4661857966714581e-03  2.9169879476767095e-03  1.1904267441386436e-03  9.8554992942302385e-04  1.0147197973851363e-03  1.1691262097154992e-03  4.1326080302130945e-03  5.3701485847852861e-03  3.8378288847306344e-03  1.0366681471049967e-03  3.5401757521140460e-03  2.6130118113251257e-03  5.7207743032769987e-03  3.6545402498205414e-03  3.7337298872552748e-03  5.0234996700806315e-03  1.9810529730176826e-03  1.1735714437048684e-03  7.6472835621781154e-04  1.3228106639864910e-03  2.7859440235373282e-03  3.6386462750122263e-03  3.7208022245388021e-03  2.0756783073651625e-03  4.1149514817021369e-03  1.0564899402965718e-03  6.5058048814490448e-04  1.7396649611952169e-03  5.1673561851822113e-03  2.0604964491677986e-03  1.4775968524283509e-03  1.9644862671240456e-03  2.5573674030276005e-03  3.6694769269685402e-03  1.6333881331523682e-03  1.6006239942823487e-03  2.2551819731076654e-03  3.7958132662972341e-03  1.2177504657225014e-03  1.3828126494991703e-03  1.4420415681335725e-03  3.0198219064520794e-03  3.1593953981019227e-03  1.0809830105834738e-03  5.0849878358151209e-04  4.6631235665060399e-04  1.1229707723186828e-03  5.7919532921410976e-03  4.1857962292201505e-04  6.3238219873873360e-04  2.9334083076861897e-03  1.0806584636120261e-03  8.8288101097319281e-04  4.7404518160674351e-04  3.8907697385485549e-03  1.1539312361034629e-03  5.8239321718872160e-04  6.0070249207589137e-04  5.9220283794845954e-04  5.6611075735208813e-03  3.1075894729363134e-03  8.4183069474723664e-04  3.4113851034531773e-03  1.9092020129285959e-03  3.1111405595689468e-03  1.5850083787768868e-03  2.0237372272854915e-03  1.3352834059413871e-03  4.8995016716993208e-03  2.7718846849394945e-03  2.4778252225434653e-03  3.1349873936150799e-03  1.6752847935116002e-03  2.6453241218269098e-03  3.0696136459919914e-03  1.6423429588667611e-03  1.7474568693049912e-03  4.2584042519022954e-03  4.2014120110178482e-04  4.6396359788961349e-04  1.8458774740646080e-03  1.1040332767821275e-03  2.1799497387343944e-03  2.0350461176794564e-03  1.5236638026687517e-03  2.0713420127502465e-03  3.8655690501856158e-03  1.3126286501624427e-03  4.8308120831210277e-03  4.7457750325229243e-03  7.9150635854147817e-04  2.3838134899318076e-03  2.3494815711224745e-03  1.5312426109048230e-03  1.7506568098876023e-03  6.3328908134337029e-04  4.2742013988161702e-03  2.2832293165806834e-03  1.2537450168162597e-03  1.3163260720243665e-03  9.4026522555562791e-04  6.2115025523871124e-04  2.7509160306362890e-03  4.8563150534620508e-04  1.3562577780965616e-03  1.6235181689446380e-03  5.8619649448665029e-04  8.3900565803968544e-04  4.8184820759833213e-04  3.4448265730561162e-03  1.3880968518494030e-03  9.5914484173424425e-04  4.9151677463264770e-03  3.3289970421149168e-03  1.2327711102945792e-03  4.4294307616013079e-03  1.8555336555446812e-03  5.1407012645114276e-03  3.0030103793630266e-03  1.3621728023208296e-03  5.2082331113978940e-03  3.6427112151618760e-03  4.1438059125388921e-03  5.2271588492025772e-03  6.0502629516391451e-04  1.1179843225399529e-03  1.4692117457186331e-03  1.7947077043858368e-03  1.5520422234929498e-03  4.1663081998513727e-04  2.0264954260736335e-03  1.3925055199062416e-03  3.1945532788391026e-03  4.0466547628979204e-03  3.5366070560297362e-03  3.4956379419159118e-03  3.2458025638353824e-03  2.4755881511634220e-03  3.3811353212823809e-03  3.7541659881837617e-03  5.3732629794034916e-03  2.5347722428576557e-03  9.3719898632709214e-04  1.0299161112518706e-03  8.4682128124016255e-04  1.0751976676260549e-03  4.1820934623401022e-04  4.4783883970840848e-04  3.8835531458796531e-03  4.3110440622666814e-03  6.0791863021904804e-03  2.1632688027430347e-03  3.9316483375232965e-04  5.8099928167771753e-03  4.1378143926953659e-03  4.1165478999086121e-04  3.3144521544094955e-03  2.4028785243321396e-03  7.2183050642626195e-04  6.1961526744028054e-04  1.2259023497926129e-03  1.1127660808403575e-03  6.0012947961681352e-04  3.0181725396466177e-03  4.5484219966960513e-04  1.0849065738202954e-03  4.1763551330610663e-04  4.3743855913043846e-04  6.0128258079031908e-03  7.4035601832789649e-03  2.7679439988415526e-03  2.0355296202823918e-03  6.7330639161946280e-04  2.0735288774625100e-03  1.6406189426295551e-03  2.0071580037968207e-03  1.1364239396876605e-03  3.9670210281579658e-03  2.7510823212464263e-03  2.3480293462928284e-03  4.2255776020095953e-04  1.1765316861787525e-03  3.2881284381532589e-03  3.3376402067834773e-03  4.6413785113216615e-04  3.7581944776511559e-03  1.1895358882990995e-03  2.7196519887846696e-03  3.0102415846732784e-03  7.7352296671436536e-04  1.3592717549590200e-03  3.2325982844621450e-03  5.3660941190268345e-03  2.7599540537207906e-03  5.7432780422253761e-03  1.1456513860215864e-03  2.2813200310645458e-03  6.9721522486992796e-04  2.0527258999101404e-03  3.6186859543532