<?xml version="1.0"?>
<VTKFile type="UnstructuredGrid"  version="0.1"  >
<UnstructuredGrid>
<Piece  NumberOfPoints="2446" NumberOfCells="4585">
<Points>
<DataArray  type="Float64"  NumberOfComponents="3"  format="ascii">0 0.41 0  0 0 0  2.2 0 0  2.2 0.41 0  0.2404508497187474 0.2293892626146237 0  0.25 0.2 0  0.2404508497187474 0.1706107373853764 0  0.2154508497187474 0.1524471741852423 0  0.1845491502812526 0.1524471741852423 0  0.1595491502812526 0.1706107373853764 0  0.15 0.2 0  0.1595491502812526 0.2293892626146237 0  0.1845491502812527 0.2475528258147577 0  0.2154508497187474 0.2475528258147577 0  1.1 0 0  1.1 0.41 0  0 0.205 0  0.55 0 0  0.55 0.41 0  0.275 0 0  0.275 0.41 0  1.65 0.41 0  1.65 0 0  0.8250000000000001 0.41 0  0.8250000000000001 0 0  1.375 0 0  1.375 0.41 0  1.925 0 0  1.925 0.41 0  1.5125 0.205 0  1.7875 0.205 0  0.6875 0.205 0  0.9625000000000001 0.205 0  1.2375 0.205 0  2.2 0.205 0  0.4687002074688797 0.2068568464730291 0  1.99375 0.2152743902439024 0  2.0625 0 0  2.0625 0.41 0  2.2 0.3075 0  0.4125 0 0  0.4125 0.41 0  1.7875 0.41 0  1.375 0.1486128048780488 0  1.5125 0 0  1.7875 0 0  1.5125 0.41 0  0.8250000000000001 0.2613871951219511 0  0.9625000000000001 0.41 0  0.9625000000000001 0 0  0.6875 0.41 0  0.6875 0 0  0.1375 0 0  0.1375 0.41 0  1.2375 0 0  1.1 0.1486128048780487 0  1.2375 0.41 0  1.65 0.1486128048780487 0  1.126715909090909 0.2793064024390244 0  1.676715909090909 0.2793064024390244 0  0.8517159090909092 0.1306935975609756 0  1.348284090909091 0.2793064024390244 0  0.34375 0.3032389320646208 0  1.894702181800738 0.1282910975492754 0  2.092797818199262 0.1282910975492754 0  1.85625 0.3075 0  0.61875 0.3075 0  0.61875 0.1025 0  0.3648540804333487 0.1240075933101478 0  0 0.3075 0  0 0.1025 0  2.099172119769978 0.25625 0  0.48125 0.09238439620688085 0  0.5781001037344399 0.2059284232365146 0  0.48125 0.3196743479159776 0  0.7265881057911006 0.3055240343720796 0  1.99375 0.08395950269330846 0  1.459960956013612 0.3075 0  1.569025960719943 0.2986889805672169 0  0.75625 0.08213100772579164 0  1.03125 0.3278689922742084 0  0.923871252904788 0.3078247185783941 0  1.959375 0.3126371951219512 0  1.749222215368287 0.1025 0  1.275777784631713 0.1025 0  2.2 0.1025 0  1.225938124459196 0.3075 0  1.550777784631713 0.1025 0  1.000777784631713 0.1025 0  1.44375 0.07430640243902442 0  1.16875 0.07430640243902437 0  1.899250267340833 0.2229966846119207 0  0.1020898364287272 0.3140258291809757 0  1.766482954545455 0.2934032012195123 0  0.3405058858996321 0.2119987970531874 0  0.7710785630958338 0.1710968191298857 0  1.046078563095834 0.2389031808701144 0  0.2 0.3400647632937836 0  1.421109702350723 0.2261157654379721 0  0.2800464974185557 0.08982544815605742 0  0.098916018031319 0.09171660955420841 0  2.13125 0 0  2.118919042110979 0.3422084711244843 0  1.30625 0.41 0  0.89375 0 0  1.597888256393107 0.2173787389261347 0  0.20625 0 0  1.829299675393195 0.07400700849299596 0  1.71875 0.41 0  1.16875 0.41 0  2.038220665644273 0.332420740103091 0  0.34375 0 0  0.417496017710808 0.2696595573092803 0  0.2 0.07687845740457822 0  0.9295982307099278 0.1343158415898188 0  0.07390688010811153 0.1697064032433452 0  0.5238366813727013 0.2578302467013575 0  0.05452951551825875 0.25625 0  0.5229630068078351 0.1548816096928243 0  1.452769549894695 0.1548122580621249 0  1.369219062229598 0.07430640243902442 0  1.30625 0 0  0.8504409521244898 0.3356935975609756 0  0.8821881244591965 0.205 0  1.720943423819132 0.1714577452753128 0  1.157188124459196 0.205 0  1.094219062229598 0.07430640243902437 0  1.03125 0 0  1.304056576180868 0.1714577452753128 0  1.67579304192913 0.07430640243902437 0  0.2751941921308361 0.3346083473122598 0  1.209670467133757 0.1362100266964769 0  1.025335513626278 0.1700681449722324 0  0.7562500000000001 0.41 0  1.58125 0 0  0.7567170593862014 0.2409196493502535 0  0.6926714215682891 0.1272249611432207 0  0.4139715849905988 0.3397932387114203 0  0.9840787304190477 0.2717749043358119 0  0.06875000000000001 0.41 0  0 0.35875 0  0.9281250000000001 0.06276726142697993 0  0.5507396469029935 0.3219409231578227 0  0.5504468037989405 0.09136885600634273 0  1.58125 0.41 0  1.631724228912893 0.3381867502687533 0  1.825608881788174 0.14499488549201 0  1.85625 0 0  1.44375 0 0  1.44375 0.41 0  1.85625 0.41 0  2.13125 0.41 0  0.7562500000000001 0 0  0.89375 0.41 0  0.4812500000000001 0 0  0.34375 0.41 0  0.4812500000000001 0.41 0  0.20625 0.41 0  0.06875000000000001 0 0  1.16875 0 0  0.61875 0 0  0.61875 0.41 0  1.03125 0.41 0  1.71875 0 0  1.99375 0 0  1.99375 0.41 0  1.340625 0.3489494290853124 0  1.134375 0.3489494290853123 0  1.700180620188976 0.3438659752031281 0  2.135782184673599 0.07126652247502523 0  1.668441847249787 0.2129203728327609 0  1.295782514339747 0.2378437748815763 0  0.8233075729931248 0.06842334294821524 0  1.409375 0.3520314716057996 0  0.403505597322782 0.182067236678212 0  0.378125 0.05794951541303489 0  0.3043468223249023 0.1518321115979534 0  2.129248544730567 0.1906135162504124 0  2.060771381434487 0.1989445750470348 0  2.013252586573865 0.1496169464686054 0  1.942766402200229 0.1734448904596831 0  1.895522487186454 0.06076163953489683 0  2.069553871656643 0.06605731020975725 0  1.274680914880868 0.3520219391081363 0  1.614713220494657 0.09473434380863296 0  0.7899021319497519 0.3149123934144827 0  0.69518737419149 0.0634051089053758 0  0.2971740475496061 0.2592172353407536 0  1.72990325744076 0.2380068107952482 0  1.356580098625191 0.2120393231351682 0  2.034370752044885 0.2668681600792073 0  1.51768709249349 0.3426260931494756 0  1.561883724969884 0.1650446847858835 0  1.197344062229598 0.2523725417393646 0  1.804085235518364 0.3468178408964637 0  1.817887819205233 0.2589243285818559 0  1.905897727272727 0.3485060975609756 0  0.6719798073392919 0.2688965171178177 0  0 0.05125 0  0.653125 0.35875 0  0.6396896119294488 0.1627615407790282 0  0.4274150154087412 0.1242548552168279 0  1.192836486056382 0.3562350748565544 0  0.8279124365364005 0.183856489168822 0  1.097485222388854 0.2083571153401724 0  1.28257088594801 0.2944411014911587 0  1.474860187679412 0.2504218616229368 0  1.406767003493824 0.2829282258560709 0  0.446875 0.04619219810344041 0  0.515625 0.04585361801037557 0  0.592043440706648 0.05125 0  1.845656689180403 0.1998310418452388 0  2.144958525570388 0.2909790873294231 0  0.6171090763650112 0.2492366900333857 0  2.2 0.15375 0  0.5145586920831158 0.3648371739579888 0  1.57794966442982 0.3540357145964566 0  0.721875 0.3633107922168974 0  0.0496154796471391 0.333125 0  0.5843750000000001 0.3662560860076676 0  0.5810878747760798 0.1474002776121195 0  1.508991196088596 0.1421783375065625 0  0.8840670607017558 0.2640994375393898 0  0.09776612425612034 0.2204896805326566 0  1.50436820029908 0.06143401634903343 0  1.223857000523521 0.0823554862453532 0  1.153316824384777 0.1289850171317837 0  2.148922302309752 0.1258841779285271 0  0.309375 0.04312325590431198 0  1.621993280276081 0.2841214267927899 0  1.550118654119087 0.2461998729100966 0  1.327182649291491 0.1216967252533594 0  1.051977450479407 0.1221382572915816 0  1.753125 0.04556020050186112 0  1.271875 0.04556020050186116 0  0.9816084133102366 0.05126138213476004 0  1.039051841454368 0.0572224914831029 0  0.9719230514536006 0.3480477870845102 0  1.94956388244759 0.1180512551534177 0  1.949997712993411 0.04965831614304109 0  1.771961817615021 0.1530278789497521 0  1.909246823951428 0.2812757146784527 0  0.2459536687882397 0.04668633953831142 0  1.948575539857022 0.2445328248721197 0  1.697271520964565 0.1233917627620729 0  0.7964897648514618 0.1211426571931604 0  1.065625 0.3689344961371042 0  1.085849084308977 0.3170853572226867 0  0.4702981435440001 0.260434880697798 0  1.577403511714593 0.05463601888079143 0  0.05622663515370135 0.05493816910862376 0  0.3267207591099919 0.3566194660323104 0  0.9003051618565143 0.3564049499960621 0  1.751571320346033 0.3651102912045228 0  0.1583785085108421 0.2994699345738728 0  0.1455283439499995 0.3542795598723423 0  2.2 0.35875 0  0.2347662494194072 0.298325008655211 0  0.1527284455616188 0.1065771775690181 0  0.1382139529076665 0.05427454456341477 0  0.8749341636311069 0.05110114999892954 0  0.643661668713109 0.05693499781019222 0  1.466879772203159 0.3611261772912453 0  1.990280163552011 0.3564754268533217 0  1.17471064520912 0.2990917256188288 0  0.5202693090594349 0.206382495511728 0  0 0.25625 0  2.2 0.25625 0  2.2 0.05125 0  0 0.15375 0  1.853978576207987 0.35875 0  0.9787513713939683 0.1487523696999336 0  0.240625 0.3722153812029779 0  1.515638456102889 0.2882700110184686 0  0.09048297387599738 0.3637717362208066 0  2.150453692751374 0.2387066338105111 0  1.323782677156475 0.04897634338873398 0  0.8074131292871642 0.3624701995505916 0  1.409375 0.03715320121951221 0  1.406484531114799 0.1087852750766809 0  1.134375 0.03715320121951218 0  1.627401732573545 0.04552157221025036 0  0.1170173172005315 0.1427610859166811 0  2.045405893604797 0.1105340662939892 0  1.255408269734577 0.1577307500159216 0  2.028125 0.03707597992059326 0  0.4743610090857199 0.1421513964721819 0  0.9354010469015898 0.250631300585664 0  0.04420832937638274 0.128125 0  0.8922386349349938 0.0992956419364831 0  0.1197849154434487 0.2663398672460083 0  1.248258025468107 0.2565907092181813 0  0.3746885856929528 0.370723531618974 0  1.203125 0.0366132337404304 0  0.5724622277005015 0.2751253816079333 0  0.3365425205162783 0.08395777655057959 0  2.072662025974815 0.2975086504196739 0  0.4581080832182547 0.3648371739579888 0  0.3874522734668214 0.2295447548840689 0  0.7827853612484443 0.04106550386289586 0  1.887722846421017 0.1760882698830035 0  1.472640588990488 0.1118278026240017 0  1.865937103925594 0.2604137786483804 0  1.463913572748262 0.2030442564990043 0  1.376426316059077 0.3186741374914345 0  0.6641993820150034 0.3141688596240831 0  0.2943117490824315 0.2130987422685822 0  0.3478153998082709 0.1666571081082676 0  0.3427990510599805 0.2575950027870776 0  0.7997118993855807 0.2216171933356366 0  
[...]
<PointData  Scalars="f_10-0"> 
<DataArray  type="Float64"  Name="f_10-0"  format="ascii">5.9335802257298530e-05  8.8770004344673845e-04  5.8439132406811411e-04  2.6744089671821051e-04  7.8565127544219992e-04  1.6082858485894273e-03  2.2334934785109145e-03  2.2187153760883380e-03  1.5181072617039602e-03  7.2533482331018967e-04  3.7134598649469998e-04  2.7573352720943590e-04  2.3617207214835092e-04  2.8420197021033241e-04  3.8299896932120778e-03  3.8785340731815416e-04  2.5650128196826771e-04  4.8185329187410159e-03  8.9821337377765556e-05  5.2446730019497069e-03  7.6613349684647930e-05  6.8787419874214275e-04  2.7460333225255160e-03  2.0185566137166140e-04  4.2966541101431147e-03  3.3949069582444253e-03  5.7475751063203184e-04  1.6185432008223050e-03  5.6527805008450415e-04  1.9003341896978757e-03  1.6696668206155675e-03  1.8702705553394127e-03  1.9406081907546939e-03  1.9455290124715538e-03  6.7052743357118663e-04  1.6645032700732879e-03  1.1770589404086896e-03  1.0158775497546041e-03  4.1115092173265905e-04  4.3649098874328163e-04  5.0737589711270644e-03  8.0077690165731761e-05  6.6377897611591755e-04  2.5830280152234794e-03  3.1240229382668286e-03  2.2295192772888582e-03  6.4894479462407958e-04  1.0315213275427168e-03  2.9116684794980931e-04  4.0555035297971300e-03  1.3001303289263285e-04  4.5560185139996920e-03  3.8121739455552637e-03  6.5699275900624865e-05  3.6148962304408299e-03  2.7561918854070075e-03  4.8544952854663630e-04  2.3157007421305683e-03  1.0271504081584210e-03  1.1905503324503228e-03  3.2193616813638273e-03  1.1331897870873427e-03  1.5710812545810738e-04  1.8370865288183350e-03  1.1037687298924631e-03  9.2472645081048612e-04  3.4793136811701436e-04  3.9918108950819332e-03  3.9558521899999274e-03  1.0473407024211433e-04  5.2061375267809960e-04  7.6054537667926162e-04  4.4058294900313592e-03  1.7912281063875383e-03  1.6615209230221888e-04  4.7252300063075893e-04  1.5108560118547595e-03  9.5606337155683039e-04  1.0500404045878748e-03  4.0309223880261218e-03  5.6102055294856255e-04  6.2705478012070766e-04  7.9003429710746450e-04  2.3821782990996973e-03  3.1370839255070626e-03  7.5725099353810791e-04  8.3618279273843532e-04  2.8030377444767198e-03  3.4433306184170429e-03  3.1360603723630765e-03  3.4986079159321885e-03  1.3524300607895643e-03  1.0677762032785775e-04  1.0644860791698698e-03  1.2380072051196493e-03  2.5540610804110618e-03  1.4636648919586881e-03  1.1139398795683199e-04  1.6890062156854498e-03  4.5274999419140129e-03  5.0180733836866177e-03  7.5156129802927724e-04  4.6519010291741313e-04  5.3208648569621976e-04  4.1742397750433391e-03  1.7430746141196428e-03  5.0111766897493150e-03  2.1795604932265907e-03  6.8624102778080780e-04  4.3696278845727272e-04  6.0992948148799514e-04  5.1928754275516048e-03  3.4682278194379096e-04  5.5699843016933500e-03  3.0896719449257409e-03  3.6338924437331936e-04  7.0335291192855087e-04  1.6721109845499249e-04  3.0833710062826347e-03  2.4631781818498870e-03  3.2398906637552917e-03  3.5103561737769638e-03  3.8107004592956967e-04  1.9280753710491578e-03  2.0276055037310899e-03  1.9483633310571928e-03  3.5951290696786685e-03  3.9385535495883393e-03  2.3554846344944189e-03  2.6759523886117501e-03  1.2022626816724672e-04  2.8411263525294265e-03  2.4804988696222794e-03  1.6157204972659607e-04  2.9518407052987390e-03  1.2671299598742199e-03  3.4564567861154675e-03  1.1069238012908228e-04  1.0203120959023444e-03  6.0381417859559241e-05  7.0443687271641307e-05  3.9248777409711198e-03  2.0848603217536415e-04  4.2867334998280722e-03  6.7413150409454553e-04  8.4065878376757069e-04  1.9779042939545590e-03  1.9282975575799976e-03  3.2697933651519742e-03  6.1570811810995191e-04  6.2677690201833958e-04  3.2696759603058302e-04  4.4256923552491350e-03  2.4303593087204745e-04  4.9482098439046227e-03  7.8950450256710369e-05  8.2117130118223501e-05  7.1409465635127536e-05  1.6573428848851467e-03  3.7203770302637021e-03  4.6869413242080138e-03  1.0603760653872693e-04  3.3728668573463868e-04  2.5029446381239673e-03  1.2998992826342870e-03  4.9526041006098232e-04  6.6080424256248439e-04  5.2597986821050565e-04  8.2074425934729927e-04  9.1486680835976006e-04  1.7410829605498071e-03  1.5461451867352161e-03  4.0539733036055424e-03  6.9254197303144857e-04  2.4020385284445086e-03  4.9572847281627742e-03  3.0400910090118759e-03  8.7432583404253015e-04  1.0563614096882211e-03  1.3597198922607788e-03  1.5063534302792048e-03  1.9080405252658225e-03  1.1683852472567813e-03  6.0887587859907992e-04  2.7359623481274489e-03  4.5898832585058422e-04  4.3226457580736195e-03  3.4402420136314617e-04  1.4817260417997712e-03  1.8510308861480064e-03  8.5902766114583323e-04  7.8432500760032369e-04  2.2742789625025033e-03  1.3525546209943269e-03  7.8542325397520409e-04  1.2460407038879530e-03  7.1174109968503020e-04  7.7956184246218553e-04  7.1990354245094011e-04  1.5994481248487837e-04  2.7903287113439264e-03  3.9458756293705710e-03  5.3689498260705941e-04  2.2986547927568049e-03  1.8994634292179809e-03  9.7019618129591469e-04  1.4389160460289616e-03  1.1240306793141933e-03  4.9206251615388419e-03  4.7854141379499527e-03  4.6125437764756366e-03  1.6031734807285581e-03  5.5980758810599647e-04  9.8608101852079686e-04  7.4527604094175206e-04  1.0123039653957330e-04  7.6278371534877225e-04  1.8769171635554327e-04  8.5687287628730818e-05  1.1884931395691565e-04  3.1888184220752311e-03  2.5403540508847676e-03  1.0469365599413381e-03  2.3350987393718690e-04  3.0909424461127827e-03  3.3686131957653925e-03  2.9725084691232971e-03  9.0183633500359674e-04  5.1977853563471852e-03  1.1605737157959475e-03  1.4807751883439044e-03  2.9042043770998094e-03  3.1485493348631117e-03  2.4621192039677516e-03  3.5113367166878530e-03  3.9168136223787257e-03  3.7914326940063784e-03  4.1250045229657909e-04  1.6656434006403476e-03  1.6528964215503203e-03  2.0631891541668746e-03  1.0036760315869891e-03  5.3873575599448515e-03  1.1352808929626125e-03  2.4058242133542639e-03  3.4306723588312517e-03  4.0702184969005294e-04  6.7481379952692721e-04  5.5931024996982341e-04  2.9617465069301865e-03  1.3223978295746617e-03  9.7275373812500396e-05  3.2515387816501429e-04  7.4300177111296317e-04  1.4650128773548312e-04  8.6550965641525078e-05  3.2955938849893153e-04  1.7285334338158542e-04  5.5401587442899074e-03  5.9968584870267305e-03  4.0946494538030278e-03  4.4757602133525106e-03  6.9162533917932478e-04  5.9807506565836915e-04  8.7124747533511037e-04  1.7305960161804294e-03  1.6447134682415825e-04  5.5764733265392045e-04  6.8443546133383631e-04  3.8662749690123832e-04  7.1891650851211458e-04  2.8325991501523544e-03  8.5747955269055377e-05  1.1157365359416680e-03  7.1468033175736112e-05  6.9384770583473510e-04  3.4245690019187262e-03  2.4280329011913191e-04  3.3206284920831975e-03  2.9451547982396672e-03  3.7393427476433943e-03  2.8532259709822126e-03  2.7585947166407993e-03  1.2997413663892563e-03  2.5482884763877302e-03  1.2677450275937934e-03  3.4720071694658854e-03  1.2543724063267749e-03  6.2622590772856940e-04  3.6205236455762418e-03  1.7121225341394525e-04  1.3236562656182584e-03  8.8377461572036666e-05  3.6355666100778821e-03  5.6566468866805998e-04  4.6786820185226443e-03  6.7178369869457509e-04  9.3983633805112476e-05  8.7388722002103606e-04  4.3075017768064681e-03  1.6478038868980697e-03  2.8440602875827543e-03  1.1790659077338436e-03  1.9360279718782195e-03  8.4150648414850037e-04  3.4749723878063713e-04  1.1993099082331156e-03  2.9582359028296505e-03  3.2443179042560130e-04  1.6152820006573433e-03  1.1512624523114883e-03  1.3654579868404211e-03  9.5096808745284071e-04  2.6318179851704234e-03  3.4328025379902821e-03  1.5795801613597551e-03  9.4075718995860025e-04  1.2974911493894628e-03  2.1146172801742159e-03  3.0299908931188595e-03  4.5384727803409152e-04  2.4426157221883339e-03  1.7585181861896415e-03  1.1688438536931495e-03  9.8182883939198617e-04  2.4696268766011162e-04  9.7729500210134339e-04  4.2492850145540360e-04  3.6897377639034208e-04  4.7268370701092572e-04  3.1247816427014555e-03  4.3951013685666887e-03  6.8269299629212220e-04  2.2136714843121281e-03  7.6811728129797408e-04  4.5884763775993010e-03  1.4653778867399288e-03  2.2665476148518359e-03  3.1997764273154912e-03  1.9905935365297864e-03  6.6364098890265720e-04  2.2122987175298746e-04  2.6281458090550063e-03  2.6118794099663500e-03  3.1502093297320586e-04  3.6955037744861410e-04  7.4221642214017999e-04  3.3683048972752116e-04  5.9319615552075436e-05  4.0313834764519833e-03  2.0398800555059159e-04  2.3397713879216666e-03  2.6855648297031908e-03  1.5037312459247479e-03  2.2891739801497372e-03  2.0160333401542186e-03  3.0420780172665586e-03  6.1116656117218566e-04  1.3244770404167146e-03  3.5045478905912156e-03  6.4536567467564289e-04  3.8314732878769000e-03  9.1259290593857247e-04  7.4031770540216029e-04  3.6529221914046632e-03  4.6635331265737811e-03  6.8863802077060105e-05  1.1994783177929728e-03  2.6826670614940753e-04  1.8818644075536757e-03  5.2916530972725757e-04  1.0334769733166725e-03  3.2148255048195088e-03  5.4120406159869046e-03  2.3594359394023953e-03  2.6929445764863526e-03  1.3722053748718203e-03  8.4786845948194218e-04  1.6146696356653518e-04  1.7666779585044090e-04  1.9525321610147463e-03  3.3865002867906578e-03  1.4225775951237768e-03  1.5178742400718181e-03  2.4690319911839938e-03  4.2451257634812454e-04  8.2567996371533503e-04  8.5915490805886670e-04  1.4639191934307685e-03  6.9246573489602432e-04  5.9811456864492971e-04  2.0411397454736910e-03  1.7764116635324420e-03  1.7856690078435057e-03  2.8771697521444701e-03  2.5383158742795370e-03  2.7424128516341014e-03  2.5853601686619799e-03  1.0399344834834511e-03  5.0409046292369016e-04  1.6548124839273429e-04  6.5843777225465288e-05  5.0213887103647879e-04  2.5696474331471241e-03  2.7069631465008099e-03  6.4166486131498549e-04  1.1957215915710931e-04  4.7495467372791166e-03  1.6314826027734390e-04  2.3596748961753938e-03  3.9241028823359348e-03  3.1170062128412488e-04  2.2431056269174780e-04  2.2296131929449899e-03  3.4215345520254058e-04  1.2100616836115683e-03  3.7608617027748937e-03  1.3385164573687493e-03  1.2250308949789145e-03  8.7275175342614567e-05  8.0461573917279451e-05  1.4397576052339854e-03  7.7940822342955967e-05  2.4590789243486484e-03  2.4581536693731622e-03  3.8727792752297633e-03  2.5355148840236815e-03  3.8852190072982849e-03  3.4792538147447312e-04  1.2276443842204800e-03  2.5854535903815283e-04  1.3133191445407840e-04  3.0962744934288299e-03  1.7516731505757442e-03  1.9817672578172907e-03  2.2552205170665060e-03  2.7831888885137546e-03  2.9584592904450327e-03  3.4015468296510871e-03  3.2331363526144899e-03  2.1804076937301290e-03  2.5078841143888623e-03  1.4999005107696065e-03  2.2220019515407407e-03  1.1192728024330088e-04  3.2216965780530356e-03  2.9728761356491522e-03  2.1710801173347853e-03  1.2067521095887841e-04  9.4909715162708826e-04  9.3565254734841348e-04  3.0867632435507218e-04  3.4300087017858521e-03  3.1079191393741618e-04  6.3962695506472459e-04  1.0747913224046111e-03  7.2018666444414558e-04  2.0983529124178114e-03  6.8351027216522354e-04  3.4591940589434587e-03  2.0802704870528065e-03  2.9819705410431444e-04  9.0625284287770759e-04  1.0260436494832132e-03  3.2355878583331509e-03  2.2594139769126918e-03  6.2658668174356931e-04  8.1721760963256260e-04  7.4491262727505116e-04  8.6950282586497935e-04  2.9985513464454092e-03  1.9249590157936459e-03  2.9890737731573386e-03  2.2908813738043428e-03  4.5419996852114211e-03  3.1926600675764027e-03  4.8720417911963214e-04  4.0415305776159401e-03  4.1133310940700716e-03  4.2354620380140959e-03  4.2256197115726818e-03  8.3836433231129282e-04  1.0092224376903173e-03  3.9437877416326735e-03  1.3039186397703969e-03  4.0137505101164596e-04  7.7577981539668983e-04  1.7920496313008100e-03  1.7637686846175542e-03  1.9514246959248917e-03  1.8723045426763463e-03  1.0787726500358279e-03  5.0882909136448383e-03  8.6914582114198426e-05  3.5783653553289451e-03  2.2924374163383505e-03  7.3201664197988618e-04  2.8143208879307206e-03  4.6192216840328033e-04  4.1274759253029960e-04  5.6917974285790231e-04  5.5136209335174399e-04  6.1548611587052915e-04  7.4219159608882469e-04  2.1465074347137201e-03  9.7778372737552968e-04  4.6002494277256332e-04  1.8149891862913323e-04  1.1881047381437205e-04  1.8401294855028352e-03  3.5050201717111594e-03  5.0261174310022635e-03  5.1374903937225725e-03  1.6005045808715210e-04  3.5433000712290581e-04  2.0853982091464029e-04  1.8283013330175791e-04  1.7911327482540691e-03  3.5894458232533051e-03  1.4273481699805018e-03  4.4727111091974062e-03  3.6471229017802343e-03  3.9365631635169028e-03  8.6700684107675319e-04  6.8716983224622100e-04  1.3296143021162654e-03  1.2096230187046268e-03  9.4630750468527119e-04  5.0726476909144613e-04  4.2096754890158039e-04  3.6942331003807414e-03  4.9033455426161377e-03  3.4535200455624152e-03  3.8822580672318216e-03  6.4110298823217139e-04  8.7370734058221579e-04  3.7739026978788250e-03  3.3333249787254986e-03  6.3338462291828734e-04  6.7813954757228213e-04  3.6281539486702488e-04  2.3746475314426908e-03  1.4544895413180580e-04  5.9492056650868879e-04  4.4898701885781808e-03  2.8938327238886037e-04  4.1116912493921040e-03  7.9551603047102432e-05  5.0133925561758807e-03  8.0558518160640504e-05  2.7288410890251714e-03  7.4330736429349320e-05  5.1838364790295268e-03  6.2547930098310188e-05  4.6227533137338881e-03  4.3610338755541113e-03  5.2371290173726737e-03  9.6183045275259166e-05  8.4777794497330222e-05  4.7548544365753447e-03  4.8861675496281020e-03  1.1543301450459100e-04  3.9933917593223895e-03  3.6687365305004488e-03  2.8519977984360245e-03  1.4565393539584617e-03  3.5631202149804587e-03  1.1523545219601708e-03  5.2923630272722825e-04  7.2564851454471203e-04  1.4342058677731843e-03  4.0511142185345557e-03  2.7916215938293049e-03  2.5765129433048882e-03  4.5154129533932236e-03  1.4910926695913703e-03  1.1801283429202158e-03  6.3277794137802626e-04  9.3740748697068873e-04  9.1277292412460047e-04  1.7789689288449865e-03  2.0616431194902569e-04  7.7255596501774222e-04  6.2421783676965621e-04  1.3563414921291986e-03  8.6000386847840044e-04  1.7551634148392245e-03  4.8488863683126080e-03  1.3077879398130387e-03  2.1160838375827032e-03  1.4487144971578395e-03  1.9231624507964832e-03  8.4030618287400075e-04  6.6114274290845186e-04  5.0246488560287954e-04  9.4499408273447617e-04  3.2216621688101589e-04  2.0648200786943158e-04  1.6695106951078510e-04  2.9305960676383916e-03  1.2133546090656675e-04  1.1129685965187968e-03  1.1311190519985447e-03  3.5162721337315128e-03  1.4477593024252752e-04  2.2331998472620981e-03  1.7744596691647959e-04  6.6665471544437077e-04  1.4192713892466717e-03  1.6709644457931837e-03  6.9517694000295442e-05  5.4728269200041786e-04  6.2769148954064814e-03  5.3712571142183372e-04  7.0361999577958623e-04  1.4052074000768476e-03  7.2169585887079334e-04  6.9040478851477402e-04  1.8716997976572012e-03  8.2758899858098253e-04  1.0163799885713448e-03  1.3786020319334845e-03  1.6469871375751448e-03  5.7897026988558702e-04  4.4047544412840053e-03  2.4700143078906088e-03  2.5650629160531738e-03  3.5661462529714637e-03  4.4195932609721457e-04  2.8337091086960979e-03  2.7524929683076650e-03  2.4542168892158767e-03  6.1853578614993532e-04  5.8614439842230863e-04  6.8813136426593223e-04  7.6005499698121788e-04  3.6544313970286743e-03  4.8338690596353871e-03  3.3599223492844685e-03  7.0232875388574246e-04  3.0594003265565555e-03  2.1484562070703361e-03  5.2066807143855594e-03  3.1450261230749196e-03  3.2493969343698236e-03  4.4976551777951568e-03  1.5680537807692960e-03  6.4277911609491526e-04  4.1662792419610374e-04  7.1233100497007402e-04  2.3450479006744303e-03  3.1606755408674042e-03  3.0166911458859311e-03  1.4744913821606556e-03  3.6064869673691825e-03  7.2502821806572461e-04  2.3558743616183166e-04  1.2708933206903707e-03  4.6427945667344740e-03  1.6646014288989057e-03  1.1184085512437056e-03  1.5725492300009804e-03  2.0252959713806906e-03  3.1035321018757318e-03  1.1423538215412218e-03  1.0713876206297635e-03  9.5003133537551485e-04  3.1662210882685048e-03  5.4869527077739517e-04  8.3404077996083504e-04  8.9502283282740479e-04  2.5061984985914774e-03  1.9016027672041870e-03  7.5364225766773524e-04  1.3804928950338259e-04  1.2334724044266558e-04  7.9292977424495357e-04  5.2607790612715331e-03  8.5821425997375467e-05  2.7107058680772621e-04  1.5473821074441132e-03  6.9147965601652414e-04  5.7496786847412856e-04  1.2019435601222894e-04  3.3778461588867817e-03  6.6149185112545186e-04  2.6650313532442340e-04  1.9759819265658489e-04  2.1240933619770123e-04  5.1365228764260395e-03  1.0494599516241874e-03  4.9377942821532612e-04  2.1693044925104425e-03  1.5221917097284709e-03  2.5119759265225397e-03  1.0073469792301422e-03  6.1628213271056325e-04  9.7875314997509567e-04  4.3884633188592216e-03  2.3329070648347335e-03  2.0551371022687146e-03  2.6796424325026980e-03  1.2713144131448885e-03  2.2086943815507812e-03  7.9793029766662429e-04  1.2634302359797261e-03  7.9074278289954368e-04  3.7460486315045987e-03  8.6208610394356667e-05  1.1155469517385434e-04  1.1768079463587971e-03  7.4960860700445627e-04  1.7749230376172109e-03  1.6376141966905251e-03  1.1659894258151066e-03  1.6662918085690304e-03  3.2795487618248660e-03  7.9416630490917583e-04  4.3047007480474676e-03  4.2307941247819881e-03  4.6507683779951675e-04  1.9598790669470107e-03  1.9287713034011624e-03  1.1738444101424318e-03  1.3767732797296027e-03  3.0133674413015022e-04  3.7527913745052425e-03  1.5163926341933477e-03  8.9280208329756161e-04  9.3362977607234815e-04  5.7365579910104050e-04  2.8536285775689350e-04  7.5915169509057896e-04  1.2513826299192149e-04  1.0067567110423152e-03  1.2568813351084335e-03  2.6308772080875596e-04  5.3116273670935049e-04  1.6149862907292916e-04  2.5378786211774241e-03  1.0147205685600998e-03  6.2896067783587914e-04  4.4011164810281462e-03  2.8677884061445755e-03  5.1290437737754079e-04  3.9039369051166750e-03  1.4571742581940921e-03  4.6240580664162496e-03  2.5164816264794353e-03  9.9452943985530590e-04  4.6948872388777284e-03  3.1679966446540812e-03  3.6499564293518026e-03  4.7109384204586501e-03  2.0504806800754813e-04  6.9021632269085744e-04  4.9834693335311917e-04  6.7112994012034639e-04  4.7742216239430056e-04  9.0525033079440681e-05  1.3450147889184742e-03  7.0175783423127923e-04  2.7340163419298691e-03  3.5082706096363054e-03  2.4819222794294797e-03  2.3414375605658325e-03  2.6593131468653154e-03  2.0465122901613692e-03  2.9066838744984469e-03  3.2591503169947167e-03  4.8681578666182525e-03  2.1069979979721275e-03  6.1605812747300768e-04  6.9078129955452692e-04  5.2138053073122687e-04  7.1655505345168873e-04  8.9280297283815091e-05  1.1133413208056510e-04  3.3663747666229414e-03  3.7787580384879807e-03  5.5629935503893977e-03  1.6169559343061789e-03  7.1298335381205386e-05  5.2827940648738489e-03  3.6231039709959476e-03  8.2177599379837534e-05  2.8527843154666755e-03  7.1208855467503739e-04  2.8406052280361630e-04  2.0992797039166321e-04  8.8420168618265718e-04  7.7347003596034576e-04  2.0119753292615193e-04  1.7892360497900959e-03  1.0593781238413767e-04  6.9244472579877770e-04  8.4712866290473070e-05  9.5914866045395029e-05  5.5190879040127663e-03  6.8894976009401879e-03  1.6245515507146112e-03  8.7204234890847704e-04  3.2069500199126546e-04  1.6626098590366838e-03  1.2633721239028899e-03  1.5917385962998683e-03  8.0774227701735173e-04  3.4562681457652703e-03  2.2243626603537701e-03  1.6704836246614506e-03  9.6778715051838948e-05  7.5029057940545723e-04  1.7843390863726309e-03  1.6405092959238363e-03  1.1675755012528539e-04  3.2862310701170135e-03  7.9934971871279195e-04  2.2818981259597419e-03  2.2381525922936609e-03  4.6455938783119313e-04  1.0154463425374666e-03  2.7723565680024846e-03  4.8402295159890264e-03  1.8063672987743936e-03  5.2166324917023417e-03  8.1176534711739558e-04  1.8549470675677611e-03  3.2799294647260291e-04  1.5777455766671253e-03  3.1278607254088