<?xml version="1.0"?>
<VTKFile type="UnstructuredGrid"  version="0.1"  >
<UnstructuredGrid>
<Piece  NumberOfPoints="2446" NumberOfCells="4585">
<Points>
<DataArray  type="Float64"  NumberOfComponents="3"  format="ascii">0 0.41 0  0 0 0  2.2 0 0  2.2 0.41 0  0.2404508497187474 0.2293892626146237 0  0.25 0.2 0  0.2404508497187474 0.1706107373853764 0  0.2154508497187474 0.1524471741852423 0  0.1845491502812526 0.1524471741852423 0  0.1595491502812526 0.1706107373853764 0  0.15 0.2 0  0.1595491502812526 0.2293892626146237 0  0.1845491502812527 0.2475528258147577 0  0.2154508497187474 0.2475528258147577 0  1.1 0 0  1.1 0.41 0  0 0.205 0  0.55 0 0  0.55 0.41 0  0.275 0 0  0.275 0.41 0  1.65 0.41 0  1.65 0 0  0.8250000000000001 0.41 0  0.8250000000000001 0 0  1.375 0 0  1.375 0.41 0  1.925 0 0  1.925 0.41 0  1.5125 0.205 0  1.7875 0.205 0  0.6875 0.205 0  0.9625000000000001 0.205 0  1.2375 0.205 0  2.2 0.205 0  0.4687002074688797 0.2068568464730291 0  1.99375 0.2152743902439024 0  2.0625 0 0  2.0625 0.41 0  2.2 0.3075 0  0.4125 0 0  0.4125 0.41 0  1.7875 0.41 0  1.375 0.1486128048780488 0  1.5125 0 0  1.7875 0 0  1.5125 0.41 0  0.8250000000000001 0.2613871951219511 0  0.9625000000000001 0.41 0  0.9625000000000001 0 0  0.6875 0.41 0  0.6875 0 0  0.1375 0 0  0.1375 0.41 0  1.2375 0 0  1.1 0.1486128048780487 0  1.2375 0.41 0  1.65 0.1486128048780487 0  1.126715909090909 0.2793064024390244 0  1.676715909090909 0.2793064024390244 0  0.8517159090909092 0.1306935975609756 0  1.348284090909091 0.2793064024390244 0  0.34375 0.3032389320646208 0  1.894702181800738 0.1282910975492754 0  2.092797818199262 0.1282910975492754 0  1.85625 0.3075 0  0.61875 0.3075 0  0.61875 0.1025 0  0.3648540804333487 0.1240075933101478 0  0 0.3075 0  0 0.1025 0  2.099172119769978 0.25625 0  0.48125 0.09238439620688085 0  0.5781001037344399 0.2059284232365146 0  0.48125 0.3196743479159776 0  0.7265881057911006 0.3055240343720796 0  1.99375 0.08395950269330846 0  1.459960956013612 0.3075 0  1.569025960719943 0.2986889805672169 0  0.75625 0.08213100772579164 0  1.03125 0.3278689922742084 0  0.923871252904788 0.3078247185783941 0  1.959375 0.3126371951219512 0  1.749222215368287 0.1025 0  1.275777784631713 0.1025 0  2.2 0.1025 0  1.225938124459196 0.3075 0  1.550777784631713 0.1025 0  1.000777784631713 0.1025 0  1.44375 0.07430640243902442 0  1.16875 0.07430640243902437 0  1.899250267340833 0.2229966846119207 0  0.1020898364287272 0.3140258291809757 0  1.766482954545455 0.2934032012195123 0  0.3405058858996321 0.2119987970531874 0  0.7710785630958338 0.1710968191298857 0  1.046078563095834 0.2389031808701144 0  0.2 0.3400647632937836 0  1.421109702350723 0.2261157654379721 0  0.2800464974185557 0.08982544815605742 0  0.098916018031319 0.09171660955420841 0  2.13125 0 0  2.118919042110979 0.3422084711244843 0  1.30625 0.41 0  0.89375 0 0  1.597888256393107 0.2173787389261347 0  0.20625 0 0  1.829299675393195 0.07400700849299596 0  1.71875 0.41 0  1.16875 0.41 0  2.038220665644273 0.332420740103091 0  0.34375 0 0  0.417496017710808 0.2696595573092803 0  0.2 0.07687845740457822 0  0.9295982307099278 0.1343158415898188 0  0.07390688010811153 0.1697064032433452 0  0.5238366813727013 0.2578302467013575 0  0.05452951551825875 0.25625 0  0.5229630068078351 0.1548816096928243 0  1.452769549894695 0.1548122580621249 0  1.369219062229598 0.07430640243902442 0  1.30625 0 0  0.8504409521244898 0.3356935975609756 0  0.8821881244591965 0.205 0  1.720943423819132 0.1714577452753128 0  1.157188124459196 0.205 0  1.094219062229598 0.07430640243902437 0  1.03125 0 0  1.304056576180868 0.1714577452753128 0  1.67579304192913 0.07430640243902437 0  0.2751941921308361 0.3346083473122598 0  1.209670467133757 0.1362100266964769 0  1.025335513626278 0.1700681449722324 0  0.7562500000000001 0.41 0  1.58125 0 0  0.7567170593862014 0.2409196493502535 0  0.6926714215682891 0.1272249611432207 0  0.4139715849905988 0.3397932387114203 0  0.9840787304190477 0.2717749043358119 0  0.06875000000000001 0.41 0  0 0.35875 0  0.9281250000000001 0.06276726142697993 0  0.5507396469029935 0.3219409231578227 0  0.5504468037989405 0.09136885600634273 0  1.58125 0.41 0  1.631724228912893 0.3381867502687533 0  1.825608881788174 0.14499488549201 0  1.85625 0 0  1.44375 0 0  1.44375 0.41 0  1.85625 0.41 0  2.13125 0.41 0  0.7562500000000001 0 0  0.89375 0.41 0  0.4812500000000001 0 0  0.34375 0.41 0  0.4812500000000001 0.41 0  0.20625 0.41 0  0.06875000000000001 0 0  1.16875 0 0  0.61875 0 0  0.61875 0.41 0  1.03125 0.41 0  1.71875 0 0  1.99375 0 0  1.99375 0.41 0  1.340625 0.3489494290853124 0  1.134375 0.3489494290853123 0  1.700180620188976 0.3438659752031281 0  2.135782184673599 0.07126652247502523 0  1.668441847249787 0.2129203728327609 0  1.295782514339747 0.2378437748815763 0  0.8233075729931248 0.06842334294821524 0  1.409375 0.3520314716057996 0  0.403505597322782 0.182067236678212 0  0.378125 0.05794951541303489 0  0.3043468223249023 0.1518321115979534 0  2.129248544730567 0.1906135162504124 0  2.060771381434487 0.1989445750470348 0  2.013252586573865 0.1496169464686054 0  1.942766402200229 0.1734448904596831 0  1.895522487186454 0.06076163953489683 0  2.069553871656643 0.06605731020975725 0  1.274680914880868 0.3520219391081363 0  1.614713220494657 0.09473434380863296 0  0.7899021319497519 0.3149123934144827 0  0.69518737419149 0.0634051089053758 0  0.2971740475496061 0.2592172353407536 0  1.72990325744076 0.2380068107952482 0  1.356580098625191 0.2120393231351682 0  2.034370752044885 0.2668681600792073 0  1.51768709249349 0.3426260931494756 0  1.561883724969884 0.1650446847858835 0  1.197344062229598 0.2523725417393646 0  1.804085235518364 0.3468178408964637 0  1.817887819205233 0.2589243285818559 0  1.905897727272727 0.3485060975609756 0  0.6719798073392919 0.2688965171178177 0  0 0.05125 0  0.653125 0.35875 0  0.6396896119294488 0.1627615407790282 0  0.4274150154087412 0.1242548552168279 0  1.192836486056382 0.3562350748565544 0  0.8279124365364005 0.183856489168822 0  1.097485222388854 0.2083571153401724 0  1.28257088594801 0.2944411014911587 0  1.474860187679412 0.2504218616229368 0  1.406767003493824 0.2829282258560709 0  0.446875 0.04619219810344041 0  0.515625 0.04585361801037557 0  0.592043440706648 0.05125 0  1.845656689180403 0.1998310418452388 0  2.144958525570388 0.2909790873294231 0  0.6171090763650112 0.2492366900333857 0  2.2 0.15375 0  0.5145586920831158 0.3648371739579888 0  1.57794966442982 0.3540357145964566 0  0.721875 0.3633107922168974 0  0.0496154796471391 0.333125 0  0.5843750000000001 0.3662560860076676 0  0.5810878747760798 0.1474002776121195 0  1.508991196088596 0.1421783375065625 0  0.8840670607017558 0.2640994375393898 0  0.09776612425612034 0.2204896805326566 0  1.50436820029908 0.06143401634903343 0  1.223857000523521 0.0823554862453532 0  1.153316824384777 0.1289850171317837 0  2.148922302309752 0.1258841779285271 0  0.309375 0.04312325590431198 0  1.621993280276081 0.2841214267927899 0  1.550118654119087 0.2461998729100966 0  1.327182649291491 0.1216967252533594 0  1.051977450479407 0.1221382572915816 0  1.753125 0.04556020050186112 0  1.271875 0.04556020050186116 0  0.9816084133102366 0.05126138213476004 0  1.039051841454368 0.0572224914831029 0  0.9719230514536006 0.3480477870845102 0  1.94956388244759 0.1180512551534177 0  1.949997712993411 0.04965831614304109 0  1.771961817615021 0.1530278789497521 0  1.909246823951428 0.2812757146784527 0  0.2459536687882397 0.04668633953831142 0  1.948575539857022 0.2445328248721197 0  1.697271520964565 0.1233917627620729 0  0.7964897648514618 0.1211426571931604 0  1.065625 0.3689344961371042 0  1.085849084308977 0.3170853572226867 0  0.4702981435440001 0.260434880697798 0  1.577403511714593 0.05463601888079143 0  0.05622663515370135 0.05493816910862376 0  0.3267207591099919 0.3566194660323104 0  0.9003051618565143 0.3564049499960621 0  1.751571320346033 0.3651102912045228 0  0.1583785085108421 0.2994699345738728 0  0.1455283439499995 0.3542795598723423 0  2.2 0.35875 0  0.2347662494194072 0.298325008655211 0  0.1527284455616188 0.1065771775690181 0  0.1382139529076665 0.05427454456341477 0  0.8749341636311069 0.05110114999892954 0  0.643661668713109 0.05693499781019222 0  1.466879772203159 0.3611261772912453 0  1.990280163552011 0.3564754268533217 0  1.17471064520912 0.2990917256188288 0  0.5202693090594349 0.206382495511728 0  0 0.25625 0  2.2 0.25625 0  2.2 0.05125 0  0 0.15375 0  1.853978576207987 0.35875 0  0.9787513713939683 0.1487523696999336 0  0.240625 0.3722153812029779 0  1.515638456102889 0.2882700110184686 0  0.09048297387599738 0.3637717362208066 0  2.150453692751374 0.2387066338105111 0  1.323782677156475 0.04897634338873398 0  0.8074131292871642 0.3624701995505916 0  1.409375 0.03715320121951221 0  1.406484531114799 0.1087852750766809 0  1.134375 0.03715320121951218 0  1.627401732573545 0.04552157221025036 0  0.1170173172005315 0.1427610859166811 0  2.045405893604797 0.1105340662939892 0  1.255408269734577 0.1577307500159216 0  2.028125 0.03707597992059326 0  0.4743610090857199 0.1421513964721819 0  0.9354010469015898 0.250631300585664 0  0.04420832937638274 0.128125 0  0.8922386349349938 0.0992956419364831 0  0.1197849154434487 0.2663398672460083 0  1.248258025468107 0.2565907092181813 0  0.3746885856929528 0.370723531618974 0  1.203125 0.0366132337404304 0  0.5724622277005015 0.2751253816079333 0  0.3365425205162783 0.08395777655057959 0  2.072662025974815 0.2975086504196739 0  0.4581080832182547 0.3648371739579888 0  0.3874522734668214 0.2295447548840689 0  0.7827853612484443 0.04106550386289586 0  1.887722846421017 0.1760882698830035 0  1.472640588990488 0.1118278026240017 0  1.865937103925594 0.2604137786483804 0  1.463913572748262 0.2030442564990043 0  1.376426316059077 0.3186741374914345 0  0.6641993820150034 0.3141688596240831 0  0.2943117490824315 0.2130987422685822 0  0.3478153998082709 0.1666571081082676 0  0.3427990510599805 0.2575950027870776 0  0.7997118993855807 0.2216171933356366 0  
[...]
<PointData  Scalars="f_10-0"> 
<DataArray  type="Float64"  Name="f_10-0"  format="ascii">3.8271704749811512e-04  1.4534683816382575e-03  3.1390927217262816e-03  1.2978707544381593e-03  1.2101461426756413e-03  2.0529738613049146e-03  2.6985814312134523e-03  2.6912678078843243e-03  1.9850176233949346e-03  1.1826992211945648e-03  8.1760517243115388e-04  7.1007629253215846e-04  6.6120767821046926e-04  7.0286741469483753e-04  4.3726010013910993e-03  7.0762980364581676e-04  6.9896280345875777e-04  5.3598298366437733e-03  4.2528160722599026e-04  5.7896108940501227e-03  4.1370731246604325e-04  1.0570135162229770e-03  3.6474049224330986e-03  5.2934117675648826e-04  4.8387669890388946e-03  3.9782429047452205e-03  8.9173149445478819e-04  3.3661741722873879e-03  1.1928533044081409e-03  2.3441409391991019e-03  2.3009559836378916e-03  2.3054039687843675e-03  2.3719997077402996e-03  2.3729702048438280e-03  2.2253633088723471e-03  2.1002428330991114e-03  2.1766767090083280e-03  3.2393679999479850e-03  1.2522445818210200e-03  1.5480273073955506e-03  5.6144352067860380e-03  4.1854478297330232e-04  1.1280075776022372e-03  3.0636371890388880e-03  3.8049773694404329e-03  3.5019196851477424e-03  9.7749090556348826e-04  1.4195591615563173e-03  6.1471456300328812e-04  4.5974974428619570e-03  4.6133079382149750e-04  5.0980012918439219e-03  4.3698515884931953e-03  3.9442730973228077e-04  4.1647044905332971e-03  3.2321484969703627e-03  8.0224960824230873e-04  2.9068938496245051e-03  1.3969290683586652e-03  1.6089926086378056e-03  3.7118663126129571e-03  1.4997330015956169e-03  5.3468352373406359e-04  2.9358673721055868e-03  2.8173132044348181e-03  1.4595645723281879e-03  7.0967284088074639e-04  4.5050258563841530e-03  4.4563804565936373e-03  4.6437442950712288e-04  1.0473519502483940e-03  1.8516348245875885e-03  4.9248189337285945e-03  2.2268487380410814e-03  5.2561636530871992e-04  8.3346805769278780e-04  3.1355435241755959e-03  1.3063660504682021e-03  1.4178759407192393e-03  4.5534798222126513e-03  9.0390569515633016e-04  9.8300589650897720e-04  1.4629846981743645e-03  3.2246146071961521e-03  3.6478024866116606e-03  2.9058841076920910e-03  1.1857932879213028e-03  3.3897351493735661e-03  3.9526833831640476e-03  3.6985475219802602e-03  4.0229387119047437e-03  2.1201104958010579e-03  4.6794321485813201e-04  1.5253013222257456e-03  1.6676454265212737e-03  3.0166045531650116e-03  1.8655509349993463e-03  4.7407604382477181e-04  2.1008056085579031e-03  5.0340430216583021e-03  5.5456473657279340e-03  3.1812599184914744e-03  1.3804013083598041e-03  8.4830455136931601e-04  4.7163660582682865e-03  2.1975864245961968e-03  5.5610968759521023e-03  3.3176823640446583e-03  1.0943371960389070e-03  7.5510344357964342e-04  1.3923945357083381e-03  5.7346405922169942e-03  7.3380088771368506e-04  6.0837253723046930e-03  3.5785576191105094e-03  8.3437888904847751e-04  1.0967322860544178e-03  5.6694847722117605e-04  3.5638242508205776e-03  2.9482904338924113e-03  3.7805123884998839e-03  4.0722925752018019e-03  7.2470139935075061e-04  2.3606437478229702e-03  2.6486801857842500e-03  2.3767191218527213e-03  4.1189946832134450e-03  4.4803231881883421e-03  2.8123774600190697e-03  3.4598411595770837e-03  4.8716161265306918e-04  3.3260547081269370e-03  2.9402020500751353e-03  4.9069477998890123e-04  3.7234676837612922e-03  1.6716942252665600e-03  3.9534934957686438e-03  4.6498475927437953e-04  1.3981340112954356e-03  3.8466992701380239e-04  4.0340303058409075e-04  4.4544784079297486e-03  5.6480731475613648e-04  4.8061967847928145e-03  1.0178764138498492e-03  1.2025976854092963e-03  2.8438192621616583e-03  3.4324938452555873e-03  3.8916953987926236e-03  9.3630060152252660e-04  1.1633627282922993e-03  1.2789178129921034e-03  4.9679380734833946e-03  5.6825504292583762e-04  5.4890169942635354e-03  4.1751283408154573e-04  4.1919117072478659e-04  4.0465989730669604e-04  2.2212509201258758e-03  4.2647319857744195e-03  5.2286250873700485e-03  4.3953253985690128e-04  6.5871618192606151e-04  3.5737974536361760e-03  3.3027567730160891e-03  1.2248445852351545e-03  9.8841252235830042e-04  8.5740658161547140e-04  1.2081987114715251e-03  3.0766001098732620e-03  2.2387522218640446e-03  1.9452320846932846e-03  4.5820874682513798e-03  1.0199718708882185e-03  2.8629047448764694e-03  5.4872320760762077e-03  3.5207355197168556e-03  2.3488467169547563e-03  2.3000510045266677e-03  2.7094540506986684e-03  2.5467713736097900e-03  3.3114122709024967e-03  3.1471164207481435e-03  9.3616865596431675e-04  3.3916154307070821e-03  8.1367680791408486e-04  4.8531406495999256e-03  7.5051869839401746e-04  1.9868254010308958e-03  2.2729511260986017e-03  1.7697691854849083e-03  1.1217495309377194e-03  2.7811456731527857e-03  1.7410584196891523e-03  1.2436684145079766e-03  1.8050511980140689e-03  1.2819470765712045e-03  1.1641096505955043e-03  1.2751750914892219e-03  5.0015391266457340e-04  3.2618246296501271e-03  4.4487992335614851e-03  8.6424371090149956e-04  2.7497866203446048e-03  2.3258664718599303e-03  1.3268412741180245e-03  1.8328853873657409e-03  1.4886568893921802e-03  5.4552894632213756e-03  5.3205259176213821e-03  5.1468613387812903e-03  2.3388887121885372e-03  1.6293331158939921e-03  1.3854706079848087e-03  2.5980824984810007e-03  4.4379443797227185e-04  1.1060021041241887e-03  5.2479480427460891e-04  4.3109247854488894e-04  4.5903211184882112e-04  3.6735201577613504e-03  3.0544553287893969e-03  1.4322022659198871e-03  6.6546025334701350e-04  3.6995181554331340e-03  3.8899440456769477e-03  3.4628734012858704e-03  2.8006123828981954e-03  5.7323791244240476e-03  1.5527399369468084e-03  1.8894831977834755e-03  3.4038566951214949e-03  3.6446766799322341e-03  3.4974151710457902e-03  4.0536216421680864e-03  4.4503717741520513e-03  4.3225728378480759e-03  7.4829720271525060e-04  2.9731074576828426e-03  3.2992368956027986e-03  2.8017597910110874e-03  1.6473528139392055e-03  5.9210635922140658e-03  1.9355002675744916e-03  3.1046215782112745e-03  3.9303738624885945e-03  7.3367035580508924e-04  1.0220765100541569e-03  9.5106844272635190e-04  3.6473787480061290e-03  1.8750627908755986e-03  4.4861849240998634e-04  6.5969423959061834e-04  1.1593241726464314e-03  5.3217702827552829e-04  4.3213834310584938e-04  1.3548038979623947e-03  5.6985691214496024e-04  6.0424124882609669e-03  6.5382017959322676e-03  4.6288214025169893e-03  5.0085910474210746e-03  1.0187736415827250e-03  1.2894247581599024e-03  1.2269073382932673e-03  2.1663542469368582e-03  5.6220279284382492e-04  1.8549817322115246e-03  3.0935686394833344e-03  8.7381516564605135e-04  1.2267604103228585e-03  3.3100248413215068e-03  4.2982665181778525e-04  1.4832671705170043e-03  4.0525346377586391e-04  1.9795803240487062e-03  3.9725236659668957e-03  5.7790938281268079e-04  3.8998026083142375e-03  3.4656651851092952e-03  4.2773447344074036e-03  3.6252256564645474e-03  3.2427585902503162e-03  2.9580734129403059e-03  3.0162039373810901e-03  3.2535582858189676e-03  3.9633227228836653e-03  1.6489024328451836e-03  1.1328998741044849e-03  4.1329008188911885e-03  5.7286563081716834e-04  1.7081090629477277e-03  4.3313363452622224e-04  4.1757979230779415e-03  9.4687220994479297e-04  5.1950088452647411e-03  1.5772509900367189e-03  4.3824269667160217e-04  1.2881248709474380e-03  4.8446390867213666e-03  2.5439312400175403e-03  3.3794527618555702e-03  1.7986905134902953e-03  2.3737467884553131e-03  1.1831521808599137e-03  7.0490795553104747e-04  1.6306126933497730e-03  3.4356401108366712e-03  7.2267502687355404e-04  2.0350428025903062e-03  1.5908627944232624e-03  1.8945871491631578e-03  3.1873123152861313e-03  3.0975347267030787e-03  3.9304824914637437e-03  1.9900123544440724e-03  1.3106986636654808e-03  1.6872169161935898e-03  2.5594274133285003e-03  3.5114100886194377e-03  1.2384198443565579e-03  3.0083853145575715e-03  2.1905326104113111e-03  1.5710733873005164e-03  1.4729852744207405e-03  6.8591354969101657e-04  1.8179781371630494e-03  1.4312204019280956e-03  1.2660779742840675e-03  1.3038911519824862e-03  3.6811877827917670e-03  4.9322695809267281e-03  1.0377475105831815e-03  3.1161951975560310e-03  1.5380883735076917e-03  5.1420412606242999e-03  1.8578068271391619e-03  2.7147460386541152e-03  3.8482391731951230e-03  2.5009748507788289e-03  9.9878070916103990e-04  5.4746923647737075e-04  3.6103518477816105e-03  3.5458014025625127e-03  6.3758917482287713e-04  6.9780361119730814e-04  3.1466843318263124e-03  1.3109545624809197e-03  3.8268746118732096e-04  4.5485482662102946e-03  5.3885109103580934e-04  2.7921825241423457e-03  3.1544771477017728e-03  1.9438195345704130e-03  3.4569097849528156e-03  3.1821710634748175e-03  3.7646324697714964e-03  1.2403157154767172e-03  1.7509679820250023e-03  3.9910739468608887e-03  1.1448503684073591e-03  4.3692160070030826e-03  1.3289414794542076e-03  1.1085548821299970e-03  4.1708123963545172e-03  5.1861943370642280e-03  4.0012736370284926e-04  2.6669480105821460e-03  5.9289369732420960e-04  2.3356936479978353e-03  8.5214783145934651e-04  2.5238064606115610e-03  3.8227069820365371e-03  5.9549282852549732e-03  2.8126394824090329e-03  3.1615866880986819e-03  1.7789836654046301e-03  1.2281180593096790e-03  5.3372399657986480e-04  5.4394572277989030e-04  2.3895508318602342e-03  3.9004902188045443e-03  1.8302573185686312e-03  1.9199451291722703e-03  2.9290077827375280e-03  8.8187701626336738e-04  2.5319516275560915e-03  1.2048681067251136e-03  3.2754308212324568e-03  1.0582155253408721e-03  1.1784057076041419e-03  3.4012122070285543e-03  3.3987026133076720e-03  3.1899968961007358e-03  3.4418379517133601e-03  3.3541477365510359e-03  3.6054958746987460e-03  3.2595449615515290e-03  1.6052614913866217e-03  8.5429669884497651e-04  5.5102224871235309e-04  3.9492606447878210e-04  1.2724769814518458e-03  3.0559379418455164e-03  3.1755250991507265e-03  9.9352468555417980e-04  4.8982327717644848e-04  5.2865705732492397e-03  5.5656303407265880e-04  3.3499255631262966e-03  4.4398971333196192e-03  6.4123283495860729e-04  5.6845195602482927e-04  2.7012116531726325e-03  8.1889190161623510e-04  1.5904854497044037e-03  4.2775963206875406e-03  3.1457457907090188e-03  1.5985505588953222e-03  4.3220600539005069e-04  4.2097937416748187e-04  1.8378341796688482e-03  4.1592526601676920e-04  2.9186919760659400e-03  2.9190308601360483e-03  4.3768619616881060e-03  2.9982113510272140e-03  4.3824231703053530e-03  7.2350079248203179e-04  1.6425083211658257e-03  5.8976514803801773e-04  5.0929914603710554e-04  3.7630614255177979e-03  2.3397510779351515e-03  2.4117585176072812e-03  2.9753670694898089e-03  3.2697594767207875e-03  3.4703997138677270e-03  3.9644304229588621e-03  3.7356012460646776e-03  2.7878593745412324e-03  2.9783307219249200e-03  2.7333821507683591e-03  2.7210654478984726e-03  4.7054893901418476e-04  3.7299492937676593e-03  3.4686828515420355e-03  2.7019945640024282e-03  4.8871272823972133e-04  1.3133189934957997e-03  1.3186734057812988e-03  6.9930056689404649e-04  3.9142554268295892e-03  7.2209741191000447e-04  1.1823464434470516e-03  1.4873431893781645e-03  1.0748782988487984e-03  2.6003506509592504e-03  1.0147601799427993e-03  3.9551228228359853e-03  3.4669957758818723e-03  6.4395688360312567e-04  1.9793167863124523e-03  2.0461285232833098e-03  3.7599002797701541e-03  2.7219156608594406e-03  1.6205014929540022e-03  2.0866658666562369e-03  2.2358146241472118e-03  1.3072413244881508e-03  3.6301116873846372e-03  2.3541668391688108e-03  3.4753535872384346e-03  2.7404859598251846e-03  5.0805872357286251e-03  3.7437959075864655e-03  8.1842990180639548e-04  4.5798530533902081e-03  4.6517252980197649e-03  4.7776549182736985e-03  4.7640139697177186e-03  2.9686991704355780e-03  2.9448665756464372e-03  4.4823812548632422e-03  2.2437534881642298e-03  1.2933111498594344e-03  1.1543532106427568e-03  2.2097304908903184e-03  2.1866719738005470e-03  2.9506042506987802e-03  2.6097847096726631e-03  1.4849295506577491e-03  5.6208058033808492e-03  4.2952062077910766e-04  4.0906131885012440e-03  2.7533003338870328e-03  1.0926643741183610e-03  3.2881424406766059e-03  7.8476988534972500e-04  7.3169363977953388e-04  8.9009432951146826e-04  8.6743623484132886e-04  9.3696480485834673e-04  1.0904783284543188e-03  2.5982546800403516e-03  2.6694534973331851e-03  7.7723671477245980e-04  5.0984392975179135e-04  4.6231192086850940e-04  2.2858579167670001e-03  3.9957042163342943e-03  5.5624704775450095e-03  5.6786727994845290e-03  5.1432914036300583e-04  7.2602254639300191e-04  5.6094938123838725e-04  5.2887330713274124e-04  2.6494053689601060e-03  4.1324663989081023e-03  1.8303431230442286e-03  4.9962015856297630e-03  4.1458630107068543e-03  4.4460770466588848e-03  1.2097661924972715e-03  1.0742718480795553e-03  2.4794089386655101e-03  2.4469999801195455e-03  1.6831687770115687e-03  8.2344171354145894e-04  7.4370894956016025e-04  4.2337505536480099e-03  5.4405437718396911e-03  4.0241140995065606e-03  4.4241831564031820e-03  3.1541124135430971e-03  3.2107033153821862e-03  4.3171142261757139e-03  3.9327530507219958e-03  9.5724362319871332e-04  1.1115586562536629e-03  6.8345494373909491e-04  3.5360529353803721e-03  4.7582370802187052e-04  9.1315245158541042e-04  5.0319464988547186e-03  1.2921427838841410e-03  4.6535523440028176e-03  4.1824462601635010e-04  5.5542042193741916e-03  4.1841950122037370e-04  3.2900893631393644e-03  4.0977485270475474e-04  5.7313703481407371e-03  3.8867433722170785e-04  5.1647075908669319e-03  4.9032844493098800e-03  5.7802079811230455e-03  4.3044389039287231e-04  4.2096516482167685e-04  5.2964566305434089e-03  5.4273296053161972e-03  4.4753960410117669e-04  4.5350108916515528e-03  4.2156211352539080e-03  3.6853349948397563e-03  3.3347588356656818e-03  4.1179861608121229e-03  3.2706615869957426e-03  1.2077112010634794e-03  1.1222541217189887e-03  2.9551679600303272e-03  4.5767613293789871e-03  3.3066778928529687e-03  3.0435490983289543e-03  5.0310364776350531e-03  1.8855746231818313e-03  1.5515528969372685e-03  9.7039162889380663e-04  1.2903054441385921e-03  1.2602485656424633e-03  3.3730185790891171e-03  6.2038798014518834e-04  1.1065884539248408e-03  9.4513811708482522e-04  1.8144790460896034e-03  1.4330909352947290e-03  2.2914892308859092e-03  5.3578137497487547e-03  1.7190666140006830e-03  3.1144628356915643e-03  1.8993126308881093e-03  2.3494076357697059e-03  1.4635024767803810e-03  9.8745660461926985e-04  8.5751354361930242e-04  1.3127791618007876e-03  6.4837680466869028e-04  6.2631637450830970e-04  5.5748846546719677e-04  3.6920148696572828e-03  4.5811660626805583e-04  3.2285826847706749e-03  3.0129888123992523e-03  4.0313975291359095e-03  4.7992359326915672e-04  2.6847472500230213e-03  5.8316083672812602e-04  1.0012530300588733e-03  2.3094378840788025e-03  2.7097897509475955e-03  4.0152545722205613e-04  1.4174779073192927e-03  6.8055769863081296e-03  9.0969668340746678e-04  1.0812159772913084e-03  1.8097426913937776e-03  1.5589713025602977e-03  1.1564850922603051e-03  2.2972000245729675e-03  1.3192982590488015e-03  1.4226018829091515e-03  2.0202805166767302e-03  3.1774571276832974e-03  1.7816653034772190e-03  4.9215193725735554e-03  2.9289096980443276e-03  3.1224633167005315e-03  4.0728662191704739e-03  7.8289946163603949e-04  3.4670574217989542e-03  3.4797232873418336e-03  2.9302233694722926e-03  1.2012790042324423e-03  9.9797778862897825e-04  1.0257035204667981e-03  1.1816775034320364e-03  4.1460073199005854e-03  5.3842400300270930e-03  3.8511619382901301e-03  1.0476463411168827e-03  3.5534708368083140e-03  2.6256692532173882e-03  5.7345872248488602e-03  3.6680258500016031e-03  3.7470874631930174e-03  5.0373714817995375e-03  1.9935960579046648e-03  1.1844332340582631e-03  7.7643390806483273e-04  1.3338436723304473e-03  2.7987390136730906e-03  3.6519359483249635e-03  3.7345536897590279e-03  2.0877502465243740e-03  4.1285816822686566e-03  1.0679156643407038e-03  6.6323791275037182e-04  1.7513714662586869e-03  5.1812263156258091e-03  2.0727323535685220e-03  1.4893768885102540e-03  1.9766868420782462e-03  2.5699785029355618e-03  3.6830743669526780e-03  1.6449435606264548e-03  1.6121126270406082e-03  2.2674539865730004e-03  3.8095701381536734e-03  1.2285721325453784e-03  1.3970767271251614e-03  1.4562845404849630e-03  3.0328587220884089e-03  3.1727908421423324e-03  1.0923407148927865e-03  5.2060419285896884e-04  4.7799695073262057e-04  1.1341192743315699e-03  5.8059708766253475e-03  4.3018312576045820e-04  6.4430133747428887e-04  2.9465684727013196e-03  1.0929354450135709e-03  8.9395676712748827e-04  4.8589957858715559e-04  3.9043805917437051e-03  1.1647999286771790e-03  5.9364091093559019e-04  6.1321500475888043e-04  6.0438857910723295e-04  5.6750211433581853e-03  3.1211048450736703e-03  8.5352492929040920e-04  3.4250478292725392e-03  1.9213334842595581e-03  3.1243033172797291e-03  1.5964498535137605e-03  2.0356600377632928e-03  1.3470433099381984e-03  4.9132283403640889e-03  2.7846776757817723e-03  2.4904140516903714e-03  3.1480109906206971e-03  1.6869735099539727e-03  2.6581496404835575e-03  3.0831388243231146e-03  1.6543965733524014e-03  1.7590136743552626e-03  4.2720865865108681e-03  4.3178319379704578e-04  4.7583272864782364e-04  1.8576430274223361e-03  1.1157893362852816e-03  2.1922376502710411e-03  2.0471853770580757e-03  1.5353069395037224e-03  2.0835002990308698e-03  3.8793318588391718e-03  1.3237131004813320e-03  4.8446735551486049e-03  4.7595230859225719e-03  8.0288571292078299e-04  2.3964642139660537e-03  2.3620808766194028e-03  1.5429586555381963e-03  1.7625505116544945e-03  6.4476983684995924e-04  4.2879718826709700e-03  2.2955392826268400e-03  1.2655798431771930e-03  1.3284832503402020e-03  9.5222542639664836e-04  6.3269103686305515e-04  2.7639513978363153e-03  4.9759221391090585e-04  1.3679095771362204e-03  1.6353833428301115e-03  5.9755075717884141e-04  8.5010300761965507e-04  4.9317748400821483e-04  3.4584221969318984e-03  1.4001019048326701e-03  9.7056230882591580e-04  4.9289222769536871e-03  3.3421725876129371e-03  1.2435820197906299e-03  4.4432581695326425e-03  1.8678581050375874e-03  5.1544979720864600e-03  3.0160130201112882e-03  1.3735186159172363e-03  5.2220064432269529e-03  3.6559804532538599e-03  4.1573029817390944e-03  5.2409589466912701e-03  6.1748850636460023e-04  1.1288750239566809e-03  1.4803011636658060e-03  1.8063025715344024e-03  1.5632374543327748e-03  4.2807300843748975e-04  2.0384933875029518e-03  1.4036009240492137e-03  3.2076143922194936e-03  4.0604386016599072e-03  3.5503406804670537e-03  3.5093618302969613e-03  3.2590784119817871e-03  2.4883121018814407e-03  3.3943440260260499e-03  3.7676207392451952e-03  5.3869693254377524e-03  2.5473677565728066e-03  9.4848737271942068e-04  1.0414556734416470e-03  8.5818110211072272e-04  1.0870207737490372e-03  4.2969970632198670e-04  4.5943228803889771e-04  3.8971806757050849e-03  4.3251083221960184e-03  6.0930330500866088e-03  2.1774993196403674e-03  4.0464545488313585e-04  5.8239557534791936e-03  4.1515050445770207e-03  4.2318833138572492e-04  3.3275682407441884e-03  2.4153800110177496e-03  7.3476715073926839e-04  6.3220870807521293e-04  1.2371465806936123e-03  1.1238413059463219e-03  6.1258111306753543e-04  3.0314024137290565e-03  4.6668422588577854e-04  1.0972301293261948e-03  4.2927768077181906e-04  4.4918503268967649e-04  6.0264292827160422e-03  7.4174005800932523e-03  2.7808670578409488e-03  2.0474896039492352e-03  6.8509266299148180e-04  2.0856776889238708e-03  1.6523208419845612e-03  2.0192261992753252e-03  1.1477840905464362e-03  3.9806442264594243e-03  2.7638829982070310e-03  2.3604177291335969e-03  4.3399041034789524e-04  1.1875103514670602e-03  3.3017245743709308e-03  3.3513387139202503e-03  4.7589360722315269e-04  3.7714921496708035e-03  1.2005882408156119e-03  2.7324689902840644e-03  3.0233636853541045e-03  7.8465174553468957e-04  1.3707830061762728e-03  3.2456728798908045e-03  5.3799911445993097e-03  2.7728402814353611e-03  5.7572219421740825e-03  1.1570999464798235e-03  2.2940391953304952e-03  7.0924034101311974e-04  2.0648038539486701e-03  3.6320748316951