<?xml version="1.0"?>
<VTKFile type="UnstructuredGrid"  version="0.1"  >
<UnstructuredGrid>
<Piece  NumberOfPoints="2446" NumberOfCells="4585">
<Points>
<DataArray  type="Float64"  NumberOfComponents="3"  format="ascii">0 0.41 0  0 0 0  2.2 0 0  2.2 0.41 0  0.2404508497187474 0.2293892626146237 0  0.25 0.2 0  0.2404508497187474 0.1706107373853764 0  0.2154508497187474 0.1524471741852423 0  0.1845491502812526 0.1524471741852423 0  0.1595491502812526 0.1706107373853764 0  0.15 0.2 0  0.1595491502812526 0.2293892626146237 0  0.1845491502812527 0.2475528258147577 0  0.2154508497187474 0.2475528258147577 0  1.1 0 0  1.1 0.41 0  0 0.205 0  0.55 0 0  0.55 0.41 0  0.275 0 0  0.275 0.41 0  1.65 0.41 0  1.65 0 0  0.8250000000000001 0.41 0  0.8250000000000001 0 0  1.375 0 0  1.375 0.41 0  1.925 0 0  1.925 0.41 0  1.5125 0.205 0  1.7875 0.205 0  0.6875 0.205 0  0.9625000000000001 0.205 0  1.2375 0.205 0  2.2 0.205 0  0.4687002074688797 0.2068568464730291 0  1.99375 0.2152743902439024 0  2.0625 0 0  2.0625 0.41 0  2.2 0.3075 0  0.4125 0 0  0.4125 0.41 0  1.7875 0.41 0  1.375 0.1486128048780488 0  1.5125 0 0  1.7875 0 0  1.5125 0.41 0  0.8250000000000001 0.2613871951219511 0  0.9625000000000001 0.41 0  0.9625000000000001 0 0  0.6875 0.41 0  0.6875 0 0  0.1375 0 0  0.1375 0.41 0  1.2375 0 0  1.1 0.1486128048780487 0  1.2375 0.41 0  1.65 0.1486128048780487 0  1.126715909090909 0.2793064024390244 0  1.676715909090909 0.2793064024390244 0  0.8517159090909092 0.1306935975609756 0  1.348284090909091 0.2793064024390244 0  0.34375 0.3032389320646208 0  1.894702181800738 0.1282910975492754 0  2.092797818199262 0.1282910975492754 0  1.85625 0.3075 0  0.61875 0.3075 0  0.61875 0.1025 0  0.3648540804333487 0.1240075933101478 0  0 0.3075 0  0 0.1025 0  2.099172119769978 0.25625 0  0.48125 0.09238439620688085 0  0.5781001037344399 0.2059284232365146 0  0.48125 0.3196743479159776 0  0.7265881057911006 0.3055240343720796 0  1.99375 0.08395950269330846 0  1.459960956013612 0.3075 0  1.569025960719943 0.2986889805672169 0  0.75625 0.08213100772579164 0  1.03125 0.3278689922742084 0  0.923871252904788 0.3078247185783941 0  1.959375 0.3126371951219512 0  1.749222215368287 0.1025 0  1.275777784631713 0.1025 0  2.2 0.1025 0  1.225938124459196 0.3075 0  1.550777784631713 0.1025 0  1.000777784631713 0.1025 0  1.44375 0.07430640243902442 0  1.16875 0.07430640243902437 0  1.899250267340833 0.2229966846119207 0  0.1020898364287272 0.3140258291809757 0  1.766482954545455 0.2934032012195123 0  0.3405058858996321 0.2119987970531874 0  0.7710785630958338 0.1710968191298857 0  1.046078563095834 0.2389031808701144 0  0.2 0.3400647632937836 0  1.421109702350723 0.2261157654379721 0  0.2800464974185557 0.08982544815605742 0  0.098916018031319 0.09171660955420841 0  2.13125 0 0  2.118919042110979 0.3422084711244843 0  1.30625 0.41 0  0.89375 0 0  1.597888256393107 0.2173787389261347 0  0.20625 0 0  1.829299675393195 0.07400700849299596 0  1.71875 0.41 0  1.16875 0.41 0  2.038220665644273 0.332420740103091 0  0.34375 0 0  0.417496017710808 0.2696595573092803 0  0.2 0.07687845740457822 0  0.9295982307099278 0.1343158415898188 0  0.07390688010811153 0.1697064032433452 0  0.5238366813727013 0.2578302467013575 0  0.05452951551825875 0.25625 0  0.5229630068078351 0.1548816096928243 0  1.452769549894695 0.1548122580621249 0  1.369219062229598 0.07430640243902442 0  1.30625 0 0  0.8504409521244898 0.3356935975609756 0  0.8821881244591965 0.205 0  1.720943423819132 0.1714577452753128 0  1.157188124459196 0.205 0  1.094219062229598 0.07430640243902437 0  1.03125 0 0  1.304056576180868 0.1714577452753128 0  1.67579304192913 0.07430640243902437 0  0.2751941921308361 0.3346083473122598 0  1.209670467133757 0.1362100266964769 0  1.025335513626278 0.1700681449722324 0  0.7562500000000001 0.41 0  1.58125 0 0  0.7567170593862014 0.2409196493502535 0  0.6926714215682891 0.1272249611432207 0  0.4139715849905988 0.3397932387114203 0  0.9840787304190477 0.2717749043358119 0  0.06875000000000001 0.41 0  0 0.35875 0  0.9281250000000001 0.06276726142697993 0  0.5507396469029935 0.3219409231578227 0  0.5504468037989405 0.09136885600634273 0  1.58125 0.41 0  1.631724228912893 0.3381867502687533 0  1.825608881788174 0.14499488549201 0  1.85625 0 0  1.44375 0 0  1.44375 0.41 0  1.85625 0.41 0  2.13125 0.41 0  0.7562500000000001 0 0  0.89375 0.41 0  0.4812500000000001 0 0  0.34375 0.41 0  0.4812500000000001 0.41 0  0.20625 0.41 0  0.06875000000000001 0 0  1.16875 0 0  0.61875 0 0  0.61875 0.41 0  1.03125 0.41 0  1.71875 0 0  1.99375 0 0  1.99375 0.41 0  1.340625 0.3489494290853124 0  1.134375 0.3489494290853123 0  1.700180620188976 0.3438659752031281 0  2.135782184673599 0.07126652247502523 0  1.668441847249787 0.2129203728327609 0  1.295782514339747 0.2378437748815763 0  0.8233075729931248 0.06842334294821524 0  1.409375 0.3520314716057996 0  0.403505597322782 0.182067236678212 0  0.378125 0.05794951541303489 0  0.3043468223249023 0.1518321115979534 0  2.129248544730567 0.1906135162504124 0  2.060771381434487 0.1989445750470348 0  2.013252586573865 0.1496169464686054 0  1.942766402200229 0.1734448904596831 0  1.895522487186454 0.06076163953489683 0  2.069553871656643 0.06605731020975725 0  1.274680914880868 0.3520219391081363 0  1.614713220494657 0.09473434380863296 0  0.7899021319497519 0.3149123934144827 0  0.69518737419149 0.0634051089053758 0  0.2971740475496061 0.2592172353407536 0  1.72990325744076 0.2380068107952482 0  1.356580098625191 0.2120393231351682 0  2.034370752044885 0.2668681600792073 0  1.51768709249349 0.3426260931494756 0  1.561883724969884 0.1650446847858835 0  1.197344062229598 0.2523725417393646 0  1.804085235518364 0.3468178408964637 0  1.817887819205233 0.2589243285818559 0  1.905897727272727 0.3485060975609756 0  0.6719798073392919 0.2688965171178177 0  0 0.05125 0  0.653125 0.35875 0  0.6396896119294488 0.1627615407790282 0  0.4274150154087412 0.1242548552168279 0  1.192836486056382 0.3562350748565544 0  0.8279124365364005 0.183856489168822 0  1.097485222388854 0.2083571153401724 0  1.28257088594801 0.2944411014911587 0  1.474860187679412 0.2504218616229368 0  1.406767003493824 0.2829282258560709 0  0.446875 0.04619219810344041 0  0.515625 0.04585361801037557 0  0.592043440706648 0.05125 0  1.845656689180403 0.1998310418452388 0  2.144958525570388 0.2909790873294231 0  0.6171090763650112 0.2492366900333857 0  2.2 0.15375 0  0.5145586920831158 0.3648371739579888 0  1.57794966442982 0.3540357145964566 0  0.721875 0.3633107922168974 0  0.0496154796471391 0.333125 0  0.5843750000000001 0.3662560860076676 0  0.5810878747760798 0.1474002776121195 0  1.508991196088596 0.1421783375065625 0  0.8840670607017558 0.2640994375393898 0  0.09776612425612034 0.2204896805326566 0  1.50436820029908 0.06143401634903343 0  1.223857000523521 0.0823554862453532 0  1.153316824384777 0.1289850171317837 0  2.148922302309752 0.1258841779285271 0  0.309375 0.04312325590431198 0  1.621993280276081 0.2841214267927899 0  1.550118654119087 0.2461998729100966 0  1.327182649291491 0.1216967252533594 0  1.051977450479407 0.1221382572915816 0  1.753125 0.04556020050186112 0  1.271875 0.04556020050186116 0  0.9816084133102366 0.05126138213476004 0  1.039051841454368 0.0572224914831029 0  0.9719230514536006 0.3480477870845102 0  1.94956388244759 0.1180512551534177 0  1.949997712993411 0.04965831614304109 0  1.771961817615021 0.1530278789497521 0  1.909246823951428 0.2812757146784527 0  0.2459536687882397 0.04668633953831142 0  1.948575539857022 0.2445328248721197 0  1.697271520964565 0.1233917627620729 0  0.7964897648514618 0.1211426571931604 0  1.065625 0.3689344961371042 0  1.085849084308977 0.3170853572226867 0  0.4702981435440001 0.260434880697798 0  1.577403511714593 0.05463601888079143 0  0.05622663515370135 0.05493816910862376 0  0.3267207591099919 0.3566194660323104 0  0.9003051618565143 0.3564049499960621 0  1.751571320346033 0.3651102912045228 0  0.1583785085108421 0.2994699345738728 0  0.1455283439499995 0.3542795598723423 0  2.2 0.35875 0  0.2347662494194072 0.298325008655211 0  0.1527284455616188 0.1065771775690181 0  0.1382139529076665 0.05427454456341477 0  0.8749341636311069 0.05110114999892954 0  0.643661668713109 0.05693499781019222 0  1.466879772203159 0.3611261772912453 0  1.990280163552011 0.3564754268533217 0  1.17471064520912 0.2990917256188288 0  0.5202693090594349 0.206382495511728 0  0 0.25625 0  2.2 0.25625 0  2.2 0.05125 0  0 0.15375 0  1.853978576207987 0.35875 0  0.9787513713939683 0.1487523696999336 0  0.240625 0.3722153812029779 0  1.515638456102889 0.2882700110184686 0  0.09048297387599738 0.3637717362208066 0  2.150453692751374 0.2387066338105111 0  1.323782677156475 0.04897634338873398 0  0.8074131292871642 0.3624701995505916 0  1.409375 0.03715320121951221 0  1.406484531114799 0.1087852750766809 0  1.134375 0.03715320121951218 0  1.627401732573545 0.04552157221025036 0  0.1170173172005315 0.1427610859166811 0  2.045405893604797 0.1105340662939892 0  1.255408269734577 0.1577307500159216 0  2.028125 0.03707597992059326 0  0.4743610090857199 0.1421513964721819 0  0.9354010469015898 0.250631300585664 0  0.04420832937638274 0.128125 0  0.8922386349349938 0.0992956419364831 0  0.1197849154434487 0.2663398672460083 0  1.248258025468107 0.2565907092181813 0  0.3746885856929528 0.370723531618974 0  1.203125 0.0366132337404304 0  0.5724622277005015 0.2751253816079333 0  0.3365425205162783 0.08395777655057959 0  2.072662025974815 0.2975086504196739 0  0.4581080832182547 0.3648371739579888 0  0.3874522734668214 0.2295447548840689 0  0.7827853612484443 0.04106550386289586 0  1.887722846421017 0.1760882698830035 0  1.472640588990488 0.1118278026240017 0  1.865937103925594 0.2604137786483804 0  1.463913572748262 0.2030442564990043 0  1.376426316059077 0.3186741374914345 0  0.6641993820150034 0.3141688596240831 0  0.2943117490824315 0.2130987422685822 0  0.3478153998082709 0.1666571081082676 0  0.3427990510599805 0.2575950027870776 0  0.7997118993855807 0.2216171933356366 0  
[...]
<PointData  Scalars="f_10-0"> 
<DataArray  type="Float64"  Name="f_10-0"  format="ascii">2.6897345161316866e-06  4.7526620112252896e-04  9.9274990895443073e-15  4.1231368930249534e-15  6.0936981620505538e-04  1.4000903271066685e-03  1.9996056348388436e-03  1.9781220169371450e-03  1.2864919811189826e-03  5.0800566712653301e-04  1.7038045312064724e-04  9.1510847882953731e-05  6.4876433885962661e-05  1.2110206013790292e-04  2.5186456306836784e-04  2.1228831364218510e-05  5.7644554193917285e-05  4.3038692320410826e-03  1.9394109828825384e-05  4.8717359894256407e-03  5.6491002197175842e-06  5.0332557038301075e-09  1.9742603386162542e-08  6.5569969137481863e-05  2.1752103191130068e-03  5.0237882521089227e-06  7.9920628819323463e-07  2.2063698408301131e-11  6.9211667008581524e-12  9.2355641189323605e-07  2.5917951016337208e-09  1.5535153094940293e-03  7.5615681025367602e-04  6.6892663698176518e-05  4.4526827178118454e-14  1.4612735695167744e-03  1.2483247802376848e-11  4.6360094426517348e-13  1.5526190095225280e-13  2.1689784915526604e-14  4.6965211359170731e-03  8.2252256747998856e-06  2.0160110526215359e-10  1.2220561899484258e-05  3.8817896538529589e-07  7.2177587028356813e-10  7.7422425874039822e-08  6.4720390548965890e-04  4.9656185605647402e-05  9.2086325234038183e-04  4.6894384503466340e-05  3.4904472887840867e-03  3.4151404883734364e-03  3.5351250659090180e-06  4.4677242775604747e-05  3.9123181468578229e-04  5.3381221115880628e-06  6.8179483279980623e-08  1.0749403509895289e-04  1.9297428570506546e-08  1.9874926828870598e-03  7.8237948596642344e-06  4.3263777027743244e-05  1.9506267671062256e-10  8.5552948920874178e-13  2.2601046308991822e-10  2.3317692973631523e-04  3.5622245404115767e-03  3.6673679963765797e-03  1.0821000491240571e-05  1.8466137208907686e-04  5.3661373970269847e-13  4.0717063949133343e-03  1.5619679032475081e-03  7.0841910006736993e-05  3.1485848307690015e-04  1.1606434061144750e-11  9.7592860315074195e-07  1.4574071198774322e-07  3.0414309121828569e-03  1.1034443073375822e-04  2.4976125371374336e-04  1.5477101079325223e-11  6.7691943870324045e-09  5.4026128118254206e-05  4.2655889999530394e-14  2.7480854109941892e-05  5.1374205827094535e-07  9.6879940721721080e-04  3.4255105537561443e-06  1.9544932352596171e-04  1.4734106226580256e-10  1.1064910742916181e-05  2.2456886814575008e-09  1.0518809518628199e-03  1.9452285317385449e-03  3.2532983314049351e-04  1.3344588294810466e-05  4.0584991335364127e-06  4.2281672588769248e-03  4.6804549034381148e-03  5.5366223601225076e-14  1.2845964380541301e-13  2.1940665537388211e-06  1.4879831233583878e-03  1.6192841726700146e-07  4.6289897866448361e-03  8.0857308618807788e-10  1.1252393954384829e-09  1.1441434169599132e-05  1.3917295133665372e-12  4.8239760988211308e-03  2.1924314352714437e-04  5.2569577558435514e-03  1.3929750340815146e-03  1.2266389341441286e-04  5.5587952856451747e-04  2.6365104106574692e-05  2.8038358741116526e-03  3.2796555252431976e-06  1.2076999923404698e-05  1.5332388358457634e-05  1.7865980893217869e-04  1.0805856998917873e-03  1.3504385300452183e-08  1.6566992153011639e-04  4.3050846892965890e-04  5.1657263628230015e-04  3.3135287032131868e-05  3.1236895064652331e-08  1.7608810123184402e-05  1.2626666290549632e-04  6.5245724359551621e-04  5.8606118299139799e-05  9.4201297939356762e-08  9.3893741150160258e-04  2.9301910029781103e-03  2.2335893405243494e-05  3.2569262760394287e-04  2.8085329162325964e-06  4.4164271333330854e-06  1.5164938174610583e-03  1.1269733633036629e-04  3.9169368258095546e-03  2.0546846689028360e-08  2.5489354543774103e-08  1.1584874515768275e-09  1.2724907115288119e-10  1.4016535608158778e-06  2.7197899169516727e-07  4.1452850188422968e-11  2.2367556485833682e-14  2.8636698087970858e-03  5.9998730214729453e-05  4.5335587219752201e-03  6.6723950770596672e-06  1.1621133739603891e-05  4.4527210969613240e-06  1.2484436325879351e-03  1.1438308919745894e-04  3.9673125366934204e-03  3.2446384777060678e-05  3.4191827025983292e-05  3.9761129112825441e-09  3.0319182136792017e-12  1.1304152244561815e-12  3.5096509313011461e-06  3.7167499771542088e-05  5.4196211113152028e-09  1.7624374410891957e-13  3.7526670550663421e-08  2.4544608047591739e-05  2.5124552953491993e-03  1.2082330440402120e-06  2.1689208179807742e-03  4.6127107918208891e-03  2.7842937779776144e-03  2.9680970750734362e-13  2.0600842491885890e-12  8.3176897338704330e-12  5.5929510314457999e-11  1.3251120967797699e-10  1.1504522151064872e-12  8.0627113829436192e-06  1.3424836179024186e-07  2.7133567029457493e-04  3.5394040183219853e-03  1.9485598003044822e-04  8.2730820672310948e-09  1.2350345547289974e-05  3.0375968504750756e-12  2.1956194597238395e-07  4.1649112954250190e-07  7.2022322469089689e-05  4.8335151240998533e-10  8.8149386880116848e-10  3.8048305693538823e-11  5.9837594762914622e-04  3.2900728618758386e-04  7.4314701666713807e-05  2.4471962989677772e-03  3.6497170772112372e-03  1.9112128698977402e-05  1.5386710362296093e-03  2.8534643856557146e-04  1.6316049398931500e-05  1.3402132257132336e-06  3.1031443881871732e-06  4.5564314918087965e-03  4.3838743877204706e-03  4.1145012181769769e-03  6.2192168657031938e-10  1.0936397884398475e-13  8.0342140032022620e-04  4.7116768563270283e-14  2.4595349857311867e-05  5.8168031875154205e-08  8.9551905970856953e-05  7.0186396022539111e-06  4.1701674656850865e-05  2.8736596807352518e-03  1.2014576886197968e-06  5.4594997819358603e-04  5.0649071934982956e-05  1.0060845841300015e-06  1.0330938321609451e-04  2.4271494409343569e-04  1.6626169862800235e-13  4.8451295789136714e-03  5.8984085715632982e-08  3.4283045673560213e-07  2.6138159832305813e-05  6.3822967199088268e-04  3.8378334755938673e-09  4.3456597029243784e-05  1.0354403906325739e-03  6.7046167861409083e-04  1.0631904504759136e-04  4.4818445952595321e-11  2.6745017260602829e-11  4.2434330239130431e-09  7.5975306738166579e-11  5.0366640723793652e-03  3.5612299079572115e-11  2.3814913823334263e-08  2.4547534978896644e-03  4.5416691901150740e-05  9.0393851631505971e-05  4.2083964470410830e-04  2.2025250706095921e-07  9.3665441894955786e-04  1.1569293780208030e-05  1.1309454013886443e-04  1.1852954231657115e-09  2.2572121992372455e-05  7.1332629051568988e-06  1.1062346330166989e-14  3.6182030054444061e-05  5.2479187806606419e-03  5.6323173025138824e-03  1.9804120325717487e-03  3.8616167997848855e-03  4.0447668187523577e-07  3.6940821698586032e-12  5.3046705708301224e-05  1.5189591120521599e-03  2.5840729897023694e-05  3.4003762299848256e-14  2.6051217175162921e-14  1.1935348245886242e-04  1.1950626342352565e-10  9.9314616655476941e-04  7.5062380965967486e-06  4.4569047076777541e-07  4.5211443202059616e-06  1.3400827878077221e-13  2.0819222504803643e-05  1.0770370460285333e-04  4.3895734280736165e-06  7.3886200333157603e-06  2.3197359740383268e-04  6.8225707386804545e-08  2.4972280536189463e-03  3.1642670243158175e-12  6.7371961838657714e-05  2.4964482943260226e-12  3.1876319347265642e-03  5.3899885342721383e-04  3.2641497185159217e-04  1.8428075490749592e-03  2.8208923241692096e-05  3.8153095977595634e-05  9.8020467929336927e-06  1.0149967587471236e-04  4.2844298818852798e-04  4.3615045348700974e-03  8.0663833195446408e-13  1.6181114367803263e-05  7.0861720566697979e-04  2.8323140633106786e-03  2.3622902629472550e-10  2.3172453944099942e-06  2.7125821139842135e-10  2.2445586670668916e-06  3.2308826264768263e-06  2.2804740758958645e-04  1.0110396697012767e-03  2.7050456743899190e-03  1.8511716980766242e-04  1.1304139701770158e-03  6.8379201848224153e-09  2.7655061453709214e-09  2.7479550816997595e-13  2.1583337573160351e-03  2.7485752353399472e-03  4.8184166990495307e-04  2.1950922850476643e-04  2.0012662222392461e-04  7.7020968009615033e-06  2.7745524566151888e-03  4.3181050708984004e-13  1.8721270482688059e-07  1.4984995742680939e-03  9.1116095297909369e-04  6.9193305894437577e-10  5.3572822420610517e-05  1.0569541658438133e-11  4.1357307070262805e-14  5.9431741439147583e-14  3.1464975854144190e-13  2.7310285330336133e-03  3.2524566671880998e-03  1.0238043181209533e-08  2.4362159289996313e-09  4.8690596437146060e-12  4.1993292046619921e-03  6.4021338907112061e-06  1.2421634680516471e-04  7.5226072156693218e-07  9.2405785672888454e-08  4.0636784115015420e-08  6.3338429826846339e-05  8.7831888629935613e-09  1.0882129242961957e-08  4.2378298229865784e-05  6.2966191529266344e-05  5.1958698237592328e-14  2.1579832028647730e-14  2.6787098180512786e-06  3.4791089976244295e-03  9.2626237621808735e-05  1.1185422930893559e-03  1.5078307144767353e-03  6.4318169434527093e-08  1.2615855890606996e-09  3.5017366272201933e-10  1.9639176751941474e-07  9.0410962534032518e-12  1.1386906718802890e-03  3.2405056721217505e-03  9.2370559547044401e-11  4.2240965921215275e-04  3.2916047722726076e-09  7.9215408385914768e-09  1.2676768993575818e-03  4.3319092485199591e-03  4.0198528292671171e-06  2.4994657530618801e-12  5.6741123874216417e-05  4.1933538288752792e-07  9.9945204083479197e-06  8.4620977548338908e-13  1.6135670336303289e-06  5.0438933724488884e-03  4.5178105813702460e-04  2.4454211088705442e-03  1.4321560781258254e-07  5.6926496541444174e-04  5.3481188766997420e-05  7.3475931770517646e-05  1.5301380854996032e-03  3.0823592701092952e-04  8.4900254496793630e-04  1.6736777141315056e-04  2.5255392494070295e-04  2.0549586534618331e-04  1.2266860813748166e-13  7.8242246846399323e-06  8.4188090874345861e-12  3.7517529236182453e-04  1.6795079563225469e-11  2.7521721929066655e-10  5.3694370940459669e-11  6.7344007585266320e-11  1.1115987272082462e-06  1.4678696378551540e-08  2.5207611193641451e-08  6.1353352634725727e-08  6.2834985470148542e-04  2.2491187598255898e-04  4.2453750543521032e-05  3.6660393093844864e-06  7.7851141310118733e-13  6.4679626887525235e-06  2.3092344149668212e-03  1.7398439156442508e-04  1.3949016531068653e-05  4.2922522652601809e-03  3.0319825036832397e-05  2.9080541163642412e-09  3.2117487934747477e-03  8.1546308615888563e-05  1.2333238595922200e-04  1.6134987041543462e-06  9.1953231290134796e-05  9.3349992226497149e-05  2.1954981245910724e-03  3.6336518140734011e-12  1.8684543956209305e-06  8.1390084566586635e-06  6.1119473928537481e-06  6.7166908397288588e-07  6.1293698313728475e-06  2.1739684163207345e-03  2.2146764958579823e-03  3.5602563960933928e-03  2.2720459617362387e-03  3.6030814117083863e-03  2.3016456438993506e-04  1.0413626458570344e-03  9.2020955309370363e-05  1.6797720942533308e-05  4.4493723496705956e-07  6.6555953942495184e-09  4.0640489977193256e-05  1.0676021706919380e-08  4.2842996642506764e-05  1.3647274991017489e-05  1.0019369670513935e-05  4.6933737110406567e-04  3.0904333292336607e-08  2.1016261435126081e-05  2.4829420769146737e-11  1.9354128376644871e-03  1.8748857898000273e-05  1.5747539361733463e-04  8.3512145729154285e-05  1.8274633160859954e-03  1.6741221208950118e-05  6.2216639364581583e-08  1.5207614972777012e-08  1.7810795687499557e-04  3.1692310853594766e-03  1.5629806315818894e-04  2.7359169842959129e-04  9.0243815180976656e-04  1.5220821543568032e-08  2.0221677962400992e-07  9.7343097084752126e-08  3.0232158906610468e-03  3.1094370702442123e-10  1.6996475279262163e-04  1.6413140268020395e-12  4.6794570168733473e-12  3.1383107212635302e-05  2.0276496466588335e-03  3.0861565590296852e-13  3.7447913426232672e-13  1.0533153724968594e-13  1.3224527900674828e-09  4.9255145321181894e-07  4.9410971816618533e-04  8.3163490982564466e-04  7.5821217014958341e-04  3.7077314193366771e-03  6.3004778978891015e-06  4.7971184890135725e-05  1.1976811191570418e-03  1.5766691275351232e-03  1.8188809908304014e-03  2.2255034299621030e-03  9.1908041394016599e-14  3.6139405068926067e-13  7.3203073445313714e-04  3.4755162683019734e-11  9.3753527368951249e-14  5.4755393737223516e-04  9.2157409975611462e-05  8.1007682594425154e-04  5.0196222452372572e-10  1.9902856658397672e-09  8.9703621556138757e-04  4.7394972374208005e-03  1.0808017165254124e-05  1.5397784202047695e-03  2.0624519590742704e-03  2.5196656352995914e-04  2.0061545061049344e-03  1.9218062057939426e-05  1.5920844796214801e-05  3.7606224313526886e-06  1.2937655152362883e-06  1.5210475035621302e-06  6.0854132834352320e-05  4.2787545511555682e-06  3.8569086110198428e-13  7.7274135477879185e-06  6.3455922320621713e-05  3.9810880962047906e-05  1.6298626099410733e-03  3.2302457565549537e-03  4.6644323059400082e-03  4.7662256243225952e-03  6.9544283537595282e-05  2.3849819674608843e-04  1.1433366763428721e-04  9.3581168685254401e-05  5.6035293781578038e-10  6.2591551632985192e-05  5.2536118091579570e-04  4.1143059779285588e-03  3.3257475430547015e-03  3.5667490332695470e-03  1.9260698124818549e-06  2.2558975749745783e-09  1.4342997809402235e-11  5.2858279110933611e-12  2.0473780422402600e-11  3.3762249013596709e-06  2.5918590668578144e-05  1.5244856294281911e-04  4.5157011888642762e-03  8.9269435110043487e-06  3.6793014814684357e-04  2.0001966230308537e-14  1.5361676821663903e-13  1.7109753800462150e-04  2.7579418881114155e-06  1.4789315416801681e-07  5.0239640110706806e-10  2.7521305597625428e-05  1.8448824101390680e-09  5.3924219787835454e-05  4.5437302138932521e-07  3.1955904028105582e-03  8.5458700473224082e-15  1.1934864635738387e-03  7.3059007660511068e-06  4.6220423624790006e-03  9.4050834384084997e-06  2.3250020109099748e-03  5.0649390794169642e-06  4.8061206317474526e-03  3.0913355667510196e-06  3.7457752684873042e-03  2.5187911151852440e-03  4.8671854638018871e-03  2.4978535329894705e-05  1.4689544462097538e-05  4.1517784574171346e-03  4.4309509028509601e-03  3.8474136786305120e-05  7.0301964490826940e-04  7.0390517154827909e-05  4.3410619135799755e-08  8.0510068209103813e-12  2.6415345600650335e-05  1.1680410978919728e-12  2.7195763991188272e-12  2.1722199977782328e-09  8.3682126054291319e-12  2.8005969136371540e-03  4.2889957471241071e-06  1.8469621090882275e-04  4.1992714172004808e-03  1.3685278828753540e-05  1.4009029475459606e-05  3.5147204122940793e-05  2.1841362819687681e-07  4.8025621777230281e-07  5.8753469760359822e-11  4.7709902933324070e-05  8.9463653744217572e-07  5.5302019877819028e-07  1.3826427473482805e-08  8.4971781509451536e-11  1.6632664084011358e-08  4.5447981952574934e-03  1.0704224209032841e-03  1.0076233816622207e-09  3.0532981819427353e-08  2.4163112905906510e-05  3.7700674039220611e-11  1.7087526263441441e-07  2.7768989379062687e-04  1.6452861885816108e-04  6.0334879517983842e-05  3.9100703738520008e-05  3.8010787133581415e-05  9.8598551431457918e-08  4.4342610823734492e-05  8.9496637515808470e-13  8.9119370376205345e-13  7.5324152743598506e-04  6.0445905599683454e-05  1.3263097670948960e-05  2.9244016656423246e-05  1.4861212637059043e-05  8.4090898989493061e-11  1.1982460742307485e-10  4.1712501539991864e-06  3.8901665378099777e-13  5.9363359352565597e-03  3.9433563163932748e-04  5.1699256549058369e-04  7.0045879750346392e-04  2.0246346197527922e-12  2.5672020000559580e-10  3.7407431291199109e-04  2.9406573986288126e-10  9.4619221829097246e-09  5.7097094367151207e-10  2.7274395622313922e-11  6.7077348135483920e-14  4.0818397059030637e-03  1.0053119312765856e-03  3.6517203629925002e-07  2.3326139011564918e-03  1.4448551173878272e-04  2.6199179918780594e-07  6.6791212310147804e-08  2.2066862881907541e-03  1.9386628222887360e-11  4.2752785977068729e-04  4.5872274171520939e-08  5.8750587990365883e-04  3.3819756737037601e-03  4.4512974735740982e-03  3.0006805211338812e-03  2.5750070914250449e-08  3.4007902380305227e-04  6.9760047925308269e-07  4.8670926374935154e-03  1.9964569711242582e-05  1.2236280154617840e-03  3.4521838132908866e-03  1.3412931902222305e-03  4.4453661633712288e-11  2.7953256917875543e-04  1.8145438598218473e-11  8.8932454757707533e-05  1.6480418494223051e-03  1.9388177136955977e-07  1.3076727118140629e-09  5.8147072475671390e-04  3.1208262523450261e-05  5.9364571732976591e-05  4.5563423978536412e-09  4.0171831528109337e-03  4.3024961815052238e-05  4.3305977627186934e-05  1.1361253445838004e-04  4.8541600419637854e-08  1.8832990589306328e-06  1.3634878132163003e-09  4.6489177972085886e-10  8.2257887718804526e-13  7.6365455339432336e-07  3.1161225884119550e-12  4.2729117261543139e-04  4.9192423708877225e-04  6.4840123735905795e-07  1.5343632390141117e-10  9.5881494845710146e-06  1.8160786852920212e-05  3.4393187426911997e-05  1.2086973929170637e-07  4.8878785378225868e-03  7.3420586287918655e-06  1.5892873923222637e-04  1.9449815041166370e-11  5.4144900243610367e-04  1.9502758147182402e-06  1.9085985014657443e-05  6.4863820920756861e-05  9.6318298616753177e-11  7.0114295376111279e-05  3.6030489479499229e-05  8.1866315894057161e-05  4.7740934067280845e-03  4.9466075855224677e-13  3.1597645646764904e-04  5.9990619623824415e-10  6.0485048703099199e-05  1.0628925089276022e-07  1.5754038689399497e-10  3.9236935194711541e-14  1.3355461704327352e-04  3.9718203034345961e-03  3.4855860666263523e-04  2.3579164533655528e-04  1.6790597194702712e-03  3.9249260167773166e-08  1.8881387340388364e-03  6.9834161668276605e-14  3.3220695891477136e-04  1.2972763831649969e-12  8.9367381394018554e-04  7.0460259325591082e-06  1.2148551188650504e-05  1.3309041254721692e-10  3.4970667364966592e-04  6.7862018018860858e-06  2.3510286981732341e-06  1.0483051277006901e-06  1.1280062924799833e-06  2.3349372034207931e-06  1.1573892297762922e-10  2.4811988088275596e-03  3.3341742710031662e-03  1.0465361834655246e-04  1.4610552968297738e-03  1.1991050574720692e-03  5.1768848780243691e-06  3.2723554671206117e-06  1.6218112649799484e-04  3.3809183638926460e-04  2.9041714558370327e-10  3.6268348080682072e-04  7.4538802286175636e-04  4.3317302006274028e-04  1.6769367470202508e-04  4.4591474472825924e-14  1.6382710333378570e-05  2.5847161859693192e-05  2.4055294819262349e-05  1.0911054823882125e-04  4.4659423867437560e-06  6.4748141985314115e-05  8.1728673565069879e-09  5.8453706514697624e-04  6.2532124403186175e-05  3.9052226855416997e-03  2.6173638458324615e-03  1.3166764602666606e-12  5.4725665074126142e-04  9.4764070120351629e-04  4.2270909570569322e-03  2.0192848592514313e-06  3.1174839013114490e-08  4.3473121076617266e-03  2.4207579820743883e-03  2.7842337328061028e-03  4.3457870075724802e-03  4.9857351820186740e-05  4.7864576407058881e-10  1.0330577328912419e-13  2.0887338999377459e-13  4.4248993982521113e-14  1.8771373450855998e-05  2.7867961817606921e-10  6.2335941846721133e-12  5.9234734598630635e-04  2.4262071473780486e-05  3.9075173196699159e-09  1.6052402431580393e-09  2.2454229966849235e-07  1.6661294462113798e-03  1.7635693625230262e-04  2.1907086953130715e-04  4.5460860806157827e-03  1.8607953939485245e-05  1.8374070376776784e-05  1.1983057866961653e-04  7.3069958293863304e-05  4.4192061706758285e-04  1.5346194809741006e-05  2.9167505027581753e-05  4.2581274496316205e-05  3.4052758161096010e-03  5.2193924355727747e-03  1.2150809230243593e-03  4.4444880839642408e-06  4.9175046143069999e-03  3.0135074944518964e-04  7.2612015293560884e-06  2.2649023425613253e-03  4.4996897127150028e-14  7.4314900852493303e-05  3.9810785703958953e-05  9.1668254726538599e-08  3.3459673105454174e-08  4.6630717436317520e-05  9.6303920607494542e-11  1.0958434155149846e-05  5.3962046903519544e-04  6.8821528454036145e-06  8.9170521515582230e-06  5.2180681763353640e-03  6.5508983647845059e-03  5.9927632105107950e-11  8.0004573706257501e-13  2.1029245934431988e-04  5.8493846617915212e-07  2.1015611258841346e-07  2.2722161233184664e-07  4.6990227739128319e-06  1.4042590162191765e-04  1.3220004093116960e-07  1.3117480239437980e-09  2.4338959655500966e-05  7.0614729964434786e-10  6.0030702830194112e-11  2.6057993558598777e-11  2.3205229156493493e-05  3.0172711445308471e-03  2.7267924064654052e-09  1.6382982214050333e-03  5.7133937840323795e-09  1.2326875154652262e-05  1.7762467334913228e-06  1.3848589697259153e-03  4.3832242112128847e-03  3.1215246105280550e-10  4.8515488828409425e-03  1.6469130008520006e-05  1.6309264658351207e-03  2.0653302827855743e-04  2.1098995623202579e-08  1.1397885461518