<?xml version="1.0"?>
<VTKFile type="UnstructuredGrid"  version="0.1"  >
<UnstructuredGrid>
<Piece  NumberOfPoints="2446" NumberOfCells="4585">
<Points>
<DataArray  type="Float64"  NumberOfComponents="3"  format="ascii">0 0.41 0  0 0 0  2.2 0 0  2.2 0.41 0  0.2404508497187474 0.2293892626146237 0  0.25 0.2 0  0.2404508497187474 0.1706107373853764 0  0.2154508497187474 0.1524471741852423 0  0.1845491502812526 0.1524471741852423 0  0.1595491502812526 0.1706107373853764 0  0.15 0.2 0  0.1595491502812526 0.2293892626146237 0  0.1845491502812527 0.2475528258147577 0  0.2154508497187474 0.2475528258147577 0  1.1 0 0  1.1 0.41 0  0 0.205 0  0.55 0 0  0.55 0.41 0  0.275 0 0  0.275 0.41 0  1.65 0.41 0  1.65 0 0  0.8250000000000001 0.41 0  0.8250000000000001 0 0  1.375 0 0  1.375 0.41 0  1.925 0 0  1.925 0.41 0  1.5125 0.205 0  1.7875 0.205 0  0.6875 0.205 0  0.9625000000000001 0.205 0  1.2375 0.205 0  2.2 0.205 0  0.4687002074688797 0.2068568464730291 0  1.99375 0.2152743902439024 0  2.0625 0 0  2.0625 0.41 0  2.2 0.3075 0  0.4125 0 0  0.4125 0.41 0  1.7875 0.41 0  1.375 0.1486128048780488 0  1.5125 0 0  1.7875 0 0  1.5125 0.41 0  0.8250000000000001 0.2613871951219511 0  0.9625000000000001 0.41 0  0.9625000000000001 0 0  0.6875 0.41 0  0.6875 0 0  0.1375 0 0  0.1375 0.41 0  1.2375 0 0  1.1 0.1486128048780487 0  1.2375 0.41 0  1.65 0.1486128048780487 0  1.126715909090909 0.2793064024390244 0  1.676715909090909 0.2793064024390244 0  0.8517159090909092 0.1306935975609756 0  1.348284090909091 0.2793064024390244 0  0.34375 0.3032389320646208 0  1.894702181800738 0.1282910975492754 0  2.092797818199262 0.1282910975492754 0  1.85625 0.3075 0  0.61875 0.3075 0  0.61875 0.1025 0  0.3648540804333487 0.1240075933101478 0  0 0.3075 0  0 0.1025 0  2.099172119769978 0.25625 0  0.48125 0.09238439620688085 0  0.5781001037344399 0.2059284232365146 0  0.48125 0.3196743479159776 0  0.7265881057911006 0.3055240343720796 0  1.99375 0.08395950269330846 0  1.459960956013612 0.3075 0  1.569025960719943 0.2986889805672169 0  0.75625 0.08213100772579164 0  1.03125 0.3278689922742084 0  0.923871252904788 0.3078247185783941 0  1.959375 0.3126371951219512 0  1.749222215368287 0.1025 0  1.275777784631713 0.1025 0  2.2 0.1025 0  1.225938124459196 0.3075 0  1.550777784631713 0.1025 0  1.000777784631713 0.1025 0  1.44375 0.07430640243902442 0  1.16875 0.07430640243902437 0  1.899250267340833 0.2229966846119207 0  0.1020898364287272 0.3140258291809757 0  1.766482954545455 0.2934032012195123 0  0.3405058858996321 0.2119987970531874 0  0.7710785630958338 0.1710968191298857 0  1.046078563095834 0.2389031808701144 0  0.2 0.3400647632937836 0  1.421109702350723 0.2261157654379721 0  0.2800464974185557 0.08982544815605742 0  0.098916018031319 0.09171660955420841 0  2.13125 0 0  2.118919042110979 0.3422084711244843 0  1.30625 0.41 0  0.89375 0 0  1.597888256393107 0.2173787389261347 0  0.20625 0 0  1.829299675393195 0.07400700849299596 0  1.71875 0.41 0  1.16875 0.41 0  2.038220665644273 0.332420740103091 0  0.34375 0 0  0.417496017710808 0.2696595573092803 0  0.2 0.07687845740457822 0  0.9295982307099278 0.1343158415898188 0  0.07390688010811153 0.1697064032433452 0  0.5238366813727013 0.2578302467013575 0  0.05452951551825875 0.25625 0  0.5229630068078351 0.1548816096928243 0  1.452769549894695 0.1548122580621249 0  1.369219062229598 0.07430640243902442 0  1.30625 0 0  0.8504409521244898 0.3356935975609756 0  0.8821881244591965 0.205 0  1.720943423819132 0.1714577452753128 0  1.157188124459196 0.205 0  1.094219062229598 0.07430640243902437 0  1.03125 0 0  1.304056576180868 0.1714577452753128 0  1.67579304192913 0.07430640243902437 0  0.2751941921308361 0.3346083473122598 0  1.209670467133757 0.1362100266964769 0  1.025335513626278 0.1700681449722324 0  0.7562500000000001 0.41 0  1.58125 0 0  0.7567170593862014 0.2409196493502535 0  0.6926714215682891 0.1272249611432207 0  0.4139715849905988 0.3397932387114203 0  0.9840787304190477 0.2717749043358119 0  0.06875000000000001 0.41 0  0 0.35875 0  0.9281250000000001 0.06276726142697993 0  0.5507396469029935 0.3219409231578227 0  0.5504468037989405 0.09136885600634273 0  1.58125 0.41 0  1.631724228912893 0.3381867502687533 0  1.825608881788174 0.14499488549201 0  1.85625 0 0  1.44375 0 0  1.44375 0.41 0  1.85625 0.41 0  2.13125 0.41 0  0.7562500000000001 0 0  0.89375 0.41 0  0.4812500000000001 0 0  0.34375 0.41 0  0.4812500000000001 0.41 0  0.20625 0.41 0  0.06875000000000001 0 0  1.16875 0 0  0.61875 0 0  0.61875 0.41 0  1.03125 0.41 0  1.71875 0 0  1.99375 0 0  1.99375 0.41 0  1.340625 0.3489494290853124 0  1.134375 0.3489494290853123 0  1.700180620188976 0.3438659752031281 0  2.135782184673599 0.07126652247502523 0  1.668441847249787 0.2129203728327609 0  1.295782514339747 0.2378437748815763 0  0.8233075729931248 0.06842334294821524 0  1.409375 0.3520314716057996 0  0.403505597322782 0.182067236678212 0  0.378125 0.05794951541303489 0  0.3043468223249023 0.1518321115979534 0  2.129248544730567 0.1906135162504124 0  2.060771381434487 0.1989445750470348 0  2.013252586573865 0.1496169464686054 0  1.942766402200229 0.1734448904596831 0  1.895522487186454 0.06076163953489683 0  2.069553871656643 0.06605731020975725 0  1.274680914880868 0.3520219391081363 0  1.614713220494657 0.09473434380863296 0  0.7899021319497519 0.3149123934144827 0  0.69518737419149 0.0634051089053758 0  0.2971740475496061 0.2592172353407536 0  1.72990325744076 0.2380068107952482 0  1.356580098625191 0.2120393231351682 0  2.034370752044885 0.2668681600792073 0  1.51768709249349 0.3426260931494756 0  1.561883724969884 0.1650446847858835 0  1.197344062229598 0.2523725417393646 0  1.804085235518364 0.3468178408964637 0  1.817887819205233 0.2589243285818559 0  1.905897727272727 0.3485060975609756 0  0.6719798073392919 0.2688965171178177 0  0 0.05125 0  0.653125 0.35875 0  0.6396896119294488 0.1627615407790282 0  0.4274150154087412 0.1242548552168279 0  1.192836486056382 0.3562350748565544 0  0.8279124365364005 0.183856489168822 0  1.097485222388854 0.2083571153401724 0  1.28257088594801 0.2944411014911587 0  1.474860187679412 0.2504218616229368 0  1.406767003493824 0.2829282258560709 0  0.446875 0.04619219810344041 0  0.515625 0.04585361801037557 0  0.592043440706648 0.05125 0  1.845656689180403 0.1998310418452388 0  2.144958525570388 0.2909790873294231 0  0.6171090763650112 0.2492366900333857 0  2.2 0.15375 0  0.5145586920831158 0.3648371739579888 0  1.57794966442982 0.3540357145964566 0  0.721875 0.3633107922168974 0  0.0496154796471391 0.333125 0  0.5843750000000001 0.3662560860076676 0  0.5810878747760798 0.1474002776121195 0  1.508991196088596 0.1421783375065625 0  0.8840670607017558 0.2640994375393898 0  0.09776612425612034 0.2204896805326566 0  1.50436820029908 0.06143401634903343 0  1.223857000523521 0.0823554862453532 0  1.153316824384777 0.1289850171317837 0  2.148922302309752 0.1258841779285271 0  0.309375 0.04312325590431198 0  1.621993280276081 0.2841214267927899 0  1.550118654119087 0.2461998729100966 0  1.327182649291491 0.1216967252533594 0  1.051977450479407 0.1221382572915816 0  1.753125 0.04556020050186112 0  1.271875 0.04556020050186116 0  0.9816084133102366 0.05126138213476004 0  1.039051841454368 0.0572224914831029 0  0.9719230514536006 0.3480477870845102 0  1.94956388244759 0.1180512551534177 0  1.949997712993411 0.04965831614304109 0  1.771961817615021 0.1530278789497521 0  1.909246823951428 0.2812757146784527 0  0.2459536687882397 0.04668633953831142 0  1.948575539857022 0.2445328248721197 0  1.697271520964565 0.1233917627620729 0  0.7964897648514618 0.1211426571931604 0  1.065625 0.3689344961371042 0  1.085849084308977 0.3170853572226867 0  0.4702981435440001 0.260434880697798 0  1.577403511714593 0.05463601888079143 0  0.05622663515370135 0.05493816910862376 0  0.3267207591099919 0.3566194660323104 0  0.9003051618565143 0.3564049499960621 0  1.751571320346033 0.3651102912045228 0  0.1583785085108421 0.2994699345738728 0  0.1455283439499995 0.3542795598723423 0  2.2 0.35875 0  0.2347662494194072 0.298325008655211 0  0.1527284455616188 0.1065771775690181 0  0.1382139529076665 0.05427454456341477 0  0.8749341636311069 0.05110114999892954 0  0.643661668713109 0.05693499781019222 0  1.466879772203159 0.3611261772912453 0  1.990280163552011 0.3564754268533217 0  1.17471064520912 0.2990917256188288 0  0.5202693090594349 0.206382495511728 0  0 0.25625 0  2.2 0.25625 0  2.2 0.05125 0  0 0.15375 0  1.853978576207987 0.35875 0  0.9787513713939683 0.1487523696999336 0  0.240625 0.3722153812029779 0  1.515638456102889 0.2882700110184686 0  0.09048297387599738 0.3637717362208066 0  2.150453692751374 0.2387066338105111 0  1.323782677156475 0.04897634338873398 0  0.8074131292871642 0.3624701995505916 0  1.409375 0.03715320121951221 0  1.406484531114799 0.1087852750766809 0  1.134375 0.03715320121951218 0  1.627401732573545 0.04552157221025036 0  0.1170173172005315 0.1427610859166811 0  2.045405893604797 0.1105340662939892 0  1.255408269734577 0.1577307500159216 0  2.028125 0.03707597992059326 0  0.4743610090857199 0.1421513964721819 0  0.9354010469015898 0.250631300585664 0  0.04420832937638274 0.128125 0  0.8922386349349938 0.0992956419364831 0  0.1197849154434487 0.2663398672460083 0  1.248258025468107 0.2565907092181813 0  0.3746885856929528 0.370723531618974 0  1.203125 0.0366132337404304 0  0.5724622277005015 0.2751253816079333 0  0.3365425205162783 0.08395777655057959 0  2.072662025974815 0.2975086504196739 0  0.4581080832182547 0.3648371739579888 0  0.3874522734668214 0.2295447548840689 0  0.7827853612484443 0.04106550386289586 0  1.887722846421017 0.1760882698830035 0  1.472640588990488 0.1118278026240017 0  1.865937103925594 0.2604137786483804 0  1.463913572748262 0.2030442564990043 0  1.376426316059077 0.3186741374914345 0  0.6641993820150034 0.3141688596240831 0  0.2943117490824315 0.2130987422685822 0  0.3478153998082709 0.1666571081082676 0  0.3427990510599805 0.2575950027870776 0  0.7997118993855807 0.2216171933356366 0  
[...]
<PointData  Scalars="f_10-0"> 
<DataArray  type="Float64"  Name="f_10-0"  format="ascii">1.8775897304316446e-04  1.1756590046956260e-03  2.8629071304754976e-03  1.1153188233497208e-03  9.8037340579617432e-04  1.8163522505013257e-03  2.4549014723194988e-03  2.4448975599898901e-03  1.7404926761140976e-03  9.4139707603127878e-04  5.8008430330147185e-04  4.7664452691811919e-04  4.3100256824957206e-04  4.7493451953515268e-04  4.1042052709974915e-03  5.1555043467759419e-04  4.6277522348037067e-04  5.0912520741955942e-03  2.2732056079050535e-04  5.5193333457479810e-03  2.1453810304546741e-04  8.7012027131317434e-04  3.3804221595254858e-03  3.3452131918212746e-04  4.5701209100335290e-03  3.7104172956430939e-03  7.0218852469621439e-04  3.0995798283431218e-03  1.0090541458584324e-03  2.1160542193141975e-03  2.0746567529906358e-03  2.0726578417420189e-03  2.1407819166583118e-03  2.1432931307644484e-03  2.0007573710321951e-03  1.8669588964329179e-03  1.9550783758951677e-03  2.9704961372951037e-03  1.0696536202764782e-03  1.3536175744184502e-03  5.3458475341395129e-03  2.1924204576643892e-04  9.4266457311681579e-04  2.8184240476865859e-03  3.5375872150288576e-03  3.2353497065445379e-03  7.8924600434904181e-04  1.2032952483077598e-03  4.2131588925721730e-04  4.3289124483517610e-03  2.6503987081095520e-04  4.8293355287865412e-03  4.0949903518130463e-03  1.9779940417405503e-04  3.8966261484324940e-03  2.9857367705383221e-03  6.1141855872772638e-04  2.6629691641519857e-03  1.1871533251548304e-03  1.4033743241426483e-03  3.4597659982377447e-03  1.2915719896355589e-03  3.2134064186744763e-04  2.6877535646292025e-03  2.5692441469868190e-03  1.2624178084613333e-03  5.0240409180672652e-04  4.2457365071849858e-03  4.2008646176534643e-03  2.5673534641667758e-04  7.8258597751548363e-04  1.6432767868268293e-03  4.6633924645478608e-03  1.9937800889390368e-03  3.1892139893723866e-04  6.2662781607133523e-04  2.8773821895790208e-03  1.1056180896009732e-03  1.2161197328967898e-03  4.2912501691898071e-03  7.0362475913294284e-04  7.7808783932465622e-04  1.2679868002372805e-03  2.9696153142577939e-03  3.3910403711399639e-03  2.6485698341053958e-03  9.8315142007838119e-04  3.1339214484473656e-03  3.6949747279694037e-03  3.4369769190156301e-03  3.7606310458569844e-03  1.9002038958310372e-03  2.5986573050672767e-04  1.3240177540521209e-03  1.4362552006598618e-03  2.7745804176524925e-03  1.6445580347576011e-03  2.6573206849932619e-04  1.8784693006699213e-03  4.7764092424651241e-03  5.2806817475540176e-03  2.9089116669266330e-03  1.1924695808192337e-03  6.5809758178451852e-04  4.4477221589749195e-03  1.9737707433961321e-03  5.2890016968122388e-03  3.0575707294155253e-03  9.0814872722118573e-04  5.6363995776278391e-04  1.2021259885526237e-03  5.4655611097020060e-03  5.1729355949574687e-04  5.8236015567859787e-03  3.3277188261493333e-03  5.8845421098005881e-04  8.7819525805954369e-04  3.4542006730094198e-04  3.3153707356322220e-03  2.7051361902884017e-03  3.5187433164394176e-03  3.8042337036876405e-03  5.2411616307930140e-04  2.1289769672598780e-03  2.4117463472951113e-03  2.1465932026839113e-03  3.8565288294030078e-03  4.2118979931376156e-03  2.5732388291075520e-03  3.1991206888415747e-03  2.7745673691184815e-04  3.0768780038629789e-03  2.6992941985993775e-03  2.9525185707837735e-04  3.4563218097064569e-03  1.4495990022847186e-03  3.6997118481219161e-03  2.5999963294776317e-04  1.1855322815482983e-03  1.8943998578602127e-04  2.0507991726721327e-04  4.1899924035031519e-03  3.5934955516705379e-04  4.5447288677451661e-03  8.3031344500113095e-04  1.0091501194145517e-03  2.5998342980885891e-03  3.1660345796688943e-03  3.6239926705672288e-03  7.4735262395374692e-04  9.7867617790589915e-04  1.0965402829983917e-03  4.6992275865322718e-03  3.7426244289045005e-04  5.2205019850391794e-03  2.1800945824638525e-04  2.2053126087285971e-04  2.0664756121386023e-04  1.9441279439314538e-03  3.9965561220502450e-03  4.9599980643829453e-03  2.4237833640827674e-04  4.6605755472410901e-04  3.3070024109142751e-03  3.0353720242905025e-03  1.0416374977345363e-03  7.9404296291407509e-04  6.6117757046720742e-04  1.0163665658553186e-03  2.8137181332062245e-03  2.0140506955611689e-03  1.7255041961806029e-03  4.3180628696843802e-03  8.2655574550844087e-04  2.6209107501886878e-03  5.2220383203757373e-03  3.2717920500799965e-03  2.1198027903042019e-03  2.0736380189846707e-03  2.4676554262209301e-03  2.3118020986199442e-03  3.0494312211460928e-03  2.8849062582450139e-03  7.4157398314726871e-04  3.1344201661429321e-03  6.0911792988663379e-04  4.5882303442541699e-03  5.2695528620535798e-04  1.7701229325315223e-03  2.0460474061657023e-03  1.5640305445332309e-03  9.2798739545125802e-04  2.5414436178934283e-03  1.5247542891809887e-03  1.0533563849598625e-03  1.5951676180588517e-03  1.0929411337323631e-03  9.4889293880880479e-04  1.0008548276924769e-03  3.0060283907859547e-04  3.0165912388374415e-03  4.1926047568217545e-03  6.6948454174359240e-04  2.5117094478513294e-03  2.0963877481619654e-03  1.1218198764355388e-03  1.6179456081032439e-03  1.2818287463968810e-03  5.1886773862312476e-03  5.0538794254864601e-03  4.8805774684703021e-03  2.1114007175261091e-03  1.4308032241862477e-03  1.1649924606085679e-03  2.3563457055594795e-03  2.4318688005944727e-04  9.1443710427079874e-04  3.2643875885308700e-04  2.2842183648546857e-04  2.5939637051757643e-04  3.4237279841191721e-03  2.8080924369817063e-03  1.2169546200304464e-03  4.3285562611323510e-04  3.4362724633404491e-03  3.6291145993840217e-03  3.2116779109036563e-03  2.5511016126854558e-03  5.4655385897841944e-03  1.3479123298125741e-03  1.6738684376483668e-03  3.1515533725820222e-03  3.3914271612118961e-03  3.2330524823757818e-03  3.7878335339464465e-03  4.1845801108777794e-03  4.0576186008474974e-03  5.5053592886688044e-04  2.7225721696634746e-03  3.0356356787874365e-03  2.5597283403664510e-03  1.4443790528775454e-03  5.6543936778352573e-03  1.7225386063703474e-03  2.8542869117905091e-03  3.6758114695607871e-03  5.3914980147303925e-04  8.2023909490370138e-04  7.3299879031627987e-04  3.3835217548700155e-03  1.6016342887254400e-03  2.4450224720655168e-04  4.6236966288995632e-04  9.7088233252554980e-04  3.1569177287939666e-04  2.2963303636599203e-04  1.1693350258480848e-03  3.4951252662600649e-04  5.7860304469676055e-03  6.2687602541424223e-03  4.3628069109379001e-03  4.7428558359884059e-03  8.2704739428032554e-04  1.1024782689747967e-03  1.0221005337589621e-03  1.9331460748355153e-03  3.4137056366532201e-04  1.6468583939512589e-03  2.8237812548091087e-03  6.2240044505203185e-04  1.0386088129185744e-03  3.0630790325305583e-03  2.2807958303631176e-04  1.2785729292110908e-03  2.0671021242938049e-04  1.7660466690465274e-03  3.7071976394515553e-03  3.8034016832920188e-04  3.6336342327417384e-03  3.2106575986301815e-03  4.0105118118488464e-03  3.3604827290221973e-03  2.9923920161047516e-03  2.7055870424503919e-03  2.7729587131343921e-03  2.9878623095188259e-03  3.7111132172388561e-03  1.4304450159823561e-03  8.7489147967276866e-04  3.8741502468594589e-03  3.5073309603328293e-04  1.4932844095959092e-03  2.3145998873249529e-04  3.9091125325345800e-03  7.3267287069856161e-04  4.9342230180839551e-03  1.3798746773482616e-03  2.3692176041111845e-04  1.0621012443559205e-03  4.5776121718394212e-03  2.3094207926943992e-03  3.1253820825338455e-03  1.5896523996828896e-03  2.1447813876900057e-03  9.8401345789038679e-04  4.9923796921687096e-04  1.3986003094243085e-03  3.1878967635414167e-03  5.0207586756594372e-04  1.8077257010359381e-03  1.3865972921995298e-03  1.6812338764874667e-03  2.9196352859002989e-03  2.8543727301689773e-03  3.6765411278729299e-03  1.7660451228119966e-03  1.1008679934628380e-03  1.4704590568391815e-03  2.3258600114871189e-03  3.2621158244302614e-03  1.0555606051804182e-03  2.7621402244300585e-03  1.9587960544728391e-03  1.3497360051045574e-03  1.2744171307072425e-03  4.5091946601255833e-04  1.6098253399258375e-03  1.2417467078001251e-03  1.0836386323060838e-03  1.1185890824504175e-03  3.4066086125468841e-03  4.6652027047630615e-03  8.5052370005505955e-04  2.8638078964257629e-03  1.3410709325450561e-03  4.8686451202511324e-03  1.6411501986785682e-03  2.4778839573365388e-03  3.5806807678820819e-03  2.2686751203464914e-03  8.1084371631767098e-04  3.5310669186779662e-04  3.3434503448308717e-03  3.2811296132893800e-03  4.4453295182911599e-04  5.0272296817716413e-04  2.8757614622475489e-03  1.1271979054403199e-03  1.8774387329464928e-04  4.2880099839230556e-03  3.4133878555558386e-04  2.5537335877466151e-03  2.9103814650049725e-03  1.7275288673174679e-03  3.1925133808460575e-03  2.9259229322982768e-03  3.4973388031008484e-03  1.0544115717017561e-03  1.5207970549564939e-03  3.7400175818616309e-03  9.5991382312962713e-04  4.1021790410609368e-03  1.1337275306371279e-03  9.1949613464203375e-04  3.9102372914878855e-03  4.9234532588022586e-03  2.0271093972557496e-04  2.4260396996147581e-03  3.9911322676753610e-04  2.1079292313060253e-03  6.5900821784804439e-04  2.2880103198713855e-03  3.5569083466767027e-03  5.6850996716799346e-03  2.5739589502797480e-03  2.9170075102253282e-03  1.5669763597316222e-03  1.0145409962885271e-03  3.2233560504886809e-04  3.3440979288936493e-04  2.1562284164824571e-03  3.6413738100942983e-03  1.6071744270572455e-03  1.6988925273689244e-03  2.6880499702031202e-03  6.4058197417435727e-04  2.2942974296587455e-03  1.0038574772659782e-03  3.0110190875791325e-03  8.4979704190286530e-04  9.9416818916564249e-04  3.1368622033119626e-03  3.1322561632176676e-03  2.9318024520256164e-03  3.1854439815817109e-03  3.0958538234384003e-03  3.3400536219266356e-03  3.0053995321179471e-03  1.3276136367030573e-03  6.5139401119525188e-04  3.3480351317151949e-04  1.9796788524961586e-04  1.0877240463176715e-03  2.8105367231140588e-03  2.9313445867689960e-03  7.9006707195048809e-04  2.7851180953564973e-04  5.0193594818134157e-03  3.3743252026135025e-04  3.0900947206885963e-03  4.1798729020819146e-03  4.4570140842261859e-04  3.6753685502320562e-04  2.4639675884366571e-03  5.7101893040467243e-04  1.3769835829734725e-03  4.0173736749229676e-03  2.8855651591809918e-03  1.3894203000940708e-03  2.3024707454425547e-04  2.2033194194632664e-04  1.6232115226573242e-03  2.1653581001913403e-04  2.6774474219821796e-03  2.6771814968630028e-03  4.1204290747836941e-03  2.7558416629001777e-03  4.1279464491623214e-03  5.1114813953394159e-04  1.4165531293837889e-03  3.9361626333192013e-04  2.9529493942590803e-04  3.4969435713711108e-03  2.1121772203749494e-03  2.1813875218111558e-03  2.7284208696302377e-03  3.0208306656440346e-03  3.2159266357569475e-03  3.6980516189546700e-03  3.4802471401716474e-03  2.5470393225615843e-03  2.7353457279480600e-03  2.4912974832963413e-03  2.4656434604287537e-03  2.6392316950553455e-04  3.4730000407835787e-03  3.2161915836058192e-03  2.4358435843697562e-03  2.7856002447581007e-04  1.1154977829346245e-03  1.1221810696293889e-03  4.8143972857855904e-04  3.6639293983010022e-03  4.9678728827040575e-04  9.1221971427055126e-04  1.2620958126240058e-03  8.8605842105219518e-04  2.3653763871032351e-03  8.2520917087655133e-04  3.7016632683038392e-03  3.2004884878306496e-03  4.4252929651911367e-04  1.7655632825589571e-03  1.8295869801925064e-03  3.4999740038652591e-03  2.4791774515218090e-03  1.4218784294724974e-03  1.8686711847387980e-03  2.0111470652445919e-03  1.1136865591594891e-03  3.3677839892284080e-03  2.1237147170030599e-03  3.2254170145786412e-03  2.5030212011678669e-03  4.8130053396077434e-03  3.4819625087993892e-03  6.2227605794970683e-04  4.3124742431829574e-03  4.3843168394162727e-03  4.5089866373120716e-03  4.4965951795005793e-03  2.7097884505220718e-03  2.6899312761068600e-03  4.2149457449397708e-03  2.0196368973438069e-03  1.1094278586567734e-03  9.4132675538335746e-04  1.9833277378372479e-03  1.9583653270087674e-03  2.7025758212658045e-03  2.3735826814374503e-03  1.2620458525099201e-03  5.3547097088309601e-03  2.2872411565454090e-04  3.8319181934742277e-03  2.5111784815185210e-03  8.8609744463114058e-04  3.0423181981009081e-03  5.9160308731894375e-04  5.3991817947567891e-04  6.9800524444575370e-04  6.7767779564716643e-04  7.4531745378659446e-04  8.8827297511619619e-04  2.3637256150920078e-03  2.4268695480023001e-03  5.8616117324410447e-04  3.1470058218702299e-04  2.6142712482302789e-04  2.0489957848361332e-03  3.7435561772464275e-03  5.2952496406326426e-03  5.4098558634131802e-03  3.0953636079026850e-04  5.1509885043623269e-04  3.5694218095742207e-04  3.2718765870869902e-04  2.4115586973122733e-03  3.8657055455119335e-03  1.6089498492407928e-03  4.7333513506244334e-03  3.8912939626699252e-03  4.1879606473484631e-03  1.0106782519986883e-03  8.8782075909283958e-04  2.2465309632095777e-03  2.2150773455362248e-03  1.4797005008807141e-03  6.3299971691519613e-04  5.5057242812249767e-04  3.9667912605795379e-03  5.1731699699404743e-03  3.7562062309888389e-03  4.1558155513461634e-03  2.8793508250623090e-03  2.9402233014658528e-03  4.0488338248647615e-03  3.6650531600985778e-03  7.6863616431407835e-04  9.2576018479048345e-04  4.9107058710075064e-04  3.2694750411769481e-03  2.7990295086482942e-04  7.2395934053085355e-04  4.7632734770787803e-03  1.1096299834446903e-03  4.3850001456117128e-03  2.1878108224805616e-04  5.2856340432718470e-03  2.1940794269447369e-04  3.0139385169844156e-03  2.1109094624553742e-04  5.4601524857051144e-03  1.9286699479825867e-04  4.8960245462231333e-03  4.6345850097604885e-03  5.5106222264178668e-03  2.3296892186972263e-04  2.2268711502309235e-04  5.0278202558776746e-03  5.1587502256568458e-03  2.5092904759030279e-04  4.2665767573423921e-03  3.9474147089440560e-03  3.4182405400052323e-03  3.0678290322270485e-03  3.8499105230030434e-03  3.0026597646141654e-03  1.0243067654449923e-03  9.3437429482594607e-04  2.7038412549414362e-03  4.3135340210808176e-03  3.0549514516921084e-03  2.8002430181234992e-03  4.7705552608908117e-03  1.6676751547787536e-03  1.3414725470074157e-03  7.7196750816923133e-04  1.0917462821824857e-03  1.0616056537964610e-03  3.1075862331872424e-03  3.9393103167023824e-04  9.1129461034338553e-04  7.5491588365945062e-04  1.6028279460314179e-03  1.2377451922560294e-03  2.0653259990832200e-03  5.0993491920607644e-03  1.4945312634366799e-03  2.8614417776174047e-03  1.6846833159954748e-03  2.1205633374210579e-03  1.2677340155805646e-03  7.9786712148880562e-04  6.5285546182986280e-04  1.1037077016463940e-03  4.5402771194162536e-04  3.9787969704648321e-04  3.3946249696978207e-04  3.4257980559292420e-03  2.5976744168138325e-04  2.9618402383776873e-03  2.7564070853511730e-03  3.7717670349988741e-03  2.8223213938378050e-04  2.4483018878479501e-03  3.5958315193412898e-04  8.0396205287923167e-04  2.0829538381118718e-03  2.4693184006355654e-03  2.0369137979444487e-04  1.2271869768606160e-03  6.5404369181269470e-03  6.9864475865542028e-04  8.6848089374269946e-04  1.5877855929706207e-03  1.3617612549784875e-03  9.7001629478243412e-04  2.0680307499677869e-03  1.1268654490326484e-03  1.2233440203237524e-03  1.8034304209774432e-03  2.9187030802085298e-03  1.5767109839704622e-03  4.6607681248897800e-03  2.6882583942080766e-03  2.8735473093082710e-03  3.8159747967581822e-03  5.8330614927620524e-04  3.2084444751799756e-03  3.2192492135199387e-03  2.6826304101617814e-03  1.0160927705680112e-03  7.7264432272262310e-04  8.3689769688842974e-04  9.5291895739957875e-04  3.8933560553463401e-03  5.1118488506197678e-03  3.5992187546233551e-03  8.5896740751385391e-04  3.3009723033556961e-03  2.3902171666400815e-03  5.4698918417917857e-03  3.4095163707999754e-03  3.4932902234406219e-03  4.7694505848261065e-03  1.7640442722384193e-03  9.9897093775306949e-04  5.6995667659549788e-04  1.1436134882047430e-03  2.5601166216134845e-03  3.4002813033792646e-03  3.4680553301209721e-03  1.8684382625944699e-03  3.8666495940746937e-03  8.6763070720376548e-04  4.3211227524402274e-04  1.5423163156549308e-03  4.9136420077744488e-03  1.8497454639131866e-03  1.2792165412293683e-03  1.7549328775276396e-03  2.3356396130909248e-03  3.4211101866574614e-03  1.4400923608564170e-03  1.4091231712952503e-03  2.0421394431669850e-03  3.5429961292532965e-03  1.0442322206458635e-03  1.1201734795811729e-03  1.1799781027512937e-03  2.7866941403936348e-03  2.9160922350037204e-03  8.9370190588112098e-04  3.0505996832581731e-04  2.7296002889664673e-04  9.4078769183411431e-04  5.5354610129828364e-03  2.2826658898838774e-04  4.3271855032301650e-04  2.6963493541382372e-03  8.7143530149114698e-04  7.0293501204472429e-04  2.7668000471540262e-04  3.6424874080398994e-03  9.7913275154171467e-04  3.9896270981442701e-04  3.8622367967482520e-04  3.8593836433011095e-04  5.4070265163204253e-03  2.8583995122248478e-03  6.4714462565548445e-04  3.1608408718840500e-03  1.7013648475032804e-03  2.8744537327346754e-03  1.3947827385120074e-03  1.8195191293644301e-03  1.1377898765357710e-03  4.6500544607824598e-03  2.5464920439413866e-03  2.2578945023200999e-03  2.9040781852661466e-03  1.4784981937390218e-03  2.4204589362526877e-03  2.8172936604252052e-03  1.4372026010649921e-03  1.5540714331390613e-03  4.0088044900290368e-03  2.2918565992383481e-04  2.6676147781703178e-04  1.6469071188081872e-03  9.0724732692081390e-04  1.9674595675375699e-03  1.8264417912882793e-03  1.3283713360151862e-03  1.8621375676773216e-03  3.6126753742067442e-03  1.1320232155575261e-03  4.5767260043622559e-03  4.4952224018902408e-03  6.0440842994302993e-04  2.1633248864832929e-03  2.1301378927021932e-03  1.3341906964529238e-03  1.5487408068904725e-03  4.4419981524051994e-04  4.0218520676657049e-03  2.0695326307621277e-03  1.0547349898508216e-03  1.1096253992334143e-03  7.3900366000904754e-04  4.3067203314882342e-04  2.5141016516041000e-03  2.8577943149454604e-04  1.1612326038950044e-03  1.4227032456635897e-03  4.0022850368316514e-04  6.5861164343625558e-04  2.9679402290455333e-04  3.1962323220770580e-03  1.1847884622442771e-03  7.7072413594799513e-04  4.6648005538544894e-03  3.0955158652908425e-03  1.0595083472510220e-03  4.1756300172791439e-03  1.6437115305231260e-03  4.8894031404142753e-03  2.7709224045352680e-03  1.1746095024580635e-03  4.9578762361204044e-03  3.4053327738472394e-03  3.9001462788798148e-03  4.9759290865616706e-03  3.9169799686223093e-04  9.4257406655308624e-04  1.2881909934492116e-03  1.6000687822386077e-03  1.3679387925520515e-03  2.2931582436455731e-04  1.8212437374668670e-03  1.2116323749504915e-03  2.9619821795854313e-03  3.7934412458668449e-03  3.2842148153920726e-03  3.2434753431396434e-03  3.0060756623598683e-03  2.2533113627429282e-03  3.1441336734562338e-03  3.5104430657358640e-03  5.1253200277664862e-03  2.3140817037483512e-03  7.5193106408538365e-04  8.3841571226564264e-04  6.6005322566391883e-04  8.7690598146010425e-04  2.2981963989163331e-04  2.5678467977612263e-04  3.6347394835124927e-03  4.0538381394414486e-03  5.8275270029305168e-03  1.9014788906921718e-03  2.0642781472799524e-04  5.5548772295855066e-03  3.8876504398036725e-03  2.2274396146550022e-04  3.0813584430535155e-03  2.1821430209061016e-03  4.9574688481939042e-04  4.0292389049641756e-04  1.0411309788994898e-03  9.3247486220070382e-04  3.8713691877434041e-04  2.7793806944638078e-03  2.5865951520539192e-04  8.7451919463076022e-04  2.2689381346287704e-04  2.4380037441654962e-04  5.7682869828132562e-03  7.1524007588169300e-03  2.5375223996582565e-03  1.8310958592594249e-03  4.7681146262918436e-04  1.8645150078966501e-03  1.4435894516096320e-03  1.8002427159457494e-03  9.4895408866744037e-04  3.7185478212004891e-03  2.5242641528725454e-03  2.1322255481392807e-03  2.3539821018678475e-04  9.9875648589785879e-04  3.0391346264939572e-03  3.0855329144875840e-03  2.6913880516742821e-04  3.5212298350025652e-03  1.0097864510360442e-03  2.4945596354545040e-03  2.7745485529513084e-03  5.9249635287765654e-04  1.1675953189257534e-03  3.0000960939462512e-03  5.1118745557901038e-03  2.5306091166950005e-03  5.4884670387403550e-03  9.5602321007217370e-04  2.0597315172188354e-03  4.9479456962997232e-04  1.8453994399107790e-03  3.3766292058692