<?xml version="1.0"?>
<VTKFile type="UnstructuredGrid"  version="0.1"  >
<UnstructuredGrid>
<Piece  NumberOfPoints="2446" NumberOfCells="4585">
<Points>
<DataArray  type="Float64"  NumberOfComponents="3"  format="ascii">0 0.41 0  0 0 0  2.2 0 0  2.2 0.41 0  0.2404508497187474 0.2293892626146237 0  0.25 0.2 0  0.2404508497187474 0.1706107373853764 0  0.2154508497187474 0.1524471741852423 0  0.1845491502812526 0.1524471741852423 0  0.1595491502812526 0.1706107373853764 0  0.15 0.2 0  0.1595491502812526 0.2293892626146237 0  0.1845491502812527 0.2475528258147577 0  0.2154508497187474 0.2475528258147577 0  1.1 0 0  1.1 0.41 0  0 0.205 0  0.55 0 0  0.55 0.41 0  0.275 0 0  0.275 0.41 0  1.65 0.41 0  1.65 0 0  0.8250000000000001 0.41 0  0.8250000000000001 0 0  1.375 0 0  1.375 0.41 0  1.925 0 0  1.925 0.41 0  1.5125 0.205 0  1.7875 0.205 0  0.6875 0.205 0  0.9625000000000001 0.205 0  1.2375 0.205 0  2.2 0.205 0  0.4687002074688797 0.2068568464730291 0  1.99375 0.2152743902439024 0  2.0625 0 0  2.0625 0.41 0  2.2 0.3075 0  0.4125 0 0  0.4125 0.41 0  1.7875 0.41 0  1.375 0.1486128048780488 0  1.5125 0 0  1.7875 0 0  1.5125 0.41 0  0.8250000000000001 0.2613871951219511 0  0.9625000000000001 0.41 0  0.9625000000000001 0 0  0.6875 0.41 0  0.6875 0 0  0.1375 0 0  0.1375 0.41 0  1.2375 0 0  1.1 0.1486128048780487 0  1.2375 0.41 0  1.65 0.1486128048780487 0  1.126715909090909 0.2793064024390244 0  1.676715909090909 0.2793064024390244 0  0.8517159090909092 0.1306935975609756 0  1.348284090909091 0.2793064024390244 0  0.34375 0.3032389320646208 0  1.894702181800738 0.1282910975492754 0  2.092797818199262 0.1282910975492754 0  1.85625 0.3075 0  0.61875 0.3075 0  0.61875 0.1025 0  0.3648540804333487 0.1240075933101478 0  0 0.3075 0  0 0.1025 0  2.099172119769978 0.25625 0  0.48125 0.09238439620688085 0  0.5781001037344399 0.2059284232365146 0  0.48125 0.3196743479159776 0  0.7265881057911006 0.3055240343720796 0  1.99375 0.08395950269330846 0  1.459960956013612 0.3075 0  1.569025960719943 0.2986889805672169 0  0.75625 0.08213100772579164 0  1.03125 0.3278689922742084 0  0.923871252904788 0.3078247185783941 0  1.959375 0.3126371951219512 0  1.749222215368287 0.1025 0  1.275777784631713 0.1025 0  2.2 0.1025 0  1.225938124459196 0.3075 0  1.550777784631713 0.1025 0  1.000777784631713 0.1025 0  1.44375 0.07430640243902442 0  1.16875 0.07430640243902437 0  1.899250267340833 0.2229966846119207 0  0.1020898364287272 0.3140258291809757 0  1.766482954545455 0.2934032012195123 0  0.3405058858996321 0.2119987970531874 0  0.7710785630958338 0.1710968191298857 0  1.046078563095834 0.2389031808701144 0  0.2 0.3400647632937836 0  1.421109702350723 0.2261157654379721 0  0.2800464974185557 0.08982544815605742 0  0.098916018031319 0.09171660955420841 0  2.13125 0 0  2.118919042110979 0.3422084711244843 0  1.30625 0.41 0  0.89375 0 0  1.597888256393107 0.2173787389261347 0  0.20625 0 0  1.829299675393195 0.07400700849299596 0  1.71875 0.41 0  1.16875 0.41 0  2.038220665644273 0.332420740103091 0  0.34375 0 0  0.417496017710808 0.2696595573092803 0  0.2 0.07687845740457822 0  0.9295982307099278 0.1343158415898188 0  0.07390688010811153 0.1697064032433452 0  0.5238366813727013 0.2578302467013575 0  0.05452951551825875 0.25625 0  0.5229630068078351 0.1548816096928243 0  1.452769549894695 0.1548122580621249 0  1.369219062229598 0.07430640243902442 0  1.30625 0 0  0.8504409521244898 0.3356935975609756 0  0.8821881244591965 0.205 0  1.720943423819132 0.1714577452753128 0  1.157188124459196 0.205 0  1.094219062229598 0.07430640243902437 0  1.03125 0 0  1.304056576180868 0.1714577452753128 0  1.67579304192913 0.07430640243902437 0  0.2751941921308361 0.3346083473122598 0  1.209670467133757 0.1362100266964769 0  1.025335513626278 0.1700681449722324 0  0.7562500000000001 0.41 0  1.58125 0 0  0.7567170593862014 0.2409196493502535 0  0.6926714215682891 0.1272249611432207 0  0.4139715849905988 0.3397932387114203 0  0.9840787304190477 0.2717749043358119 0  0.06875000000000001 0.41 0  0 0.35875 0  0.9281250000000001 0.06276726142697993 0  0.5507396469029935 0.3219409231578227 0  0.5504468037989405 0.09136885600634273 0  1.58125 0.41 0  1.631724228912893 0.3381867502687533 0  1.825608881788174 0.14499488549201 0  1.85625 0 0  1.44375 0 0  1.44375 0.41 0  1.85625 0.41 0  2.13125 0.41 0  0.7562500000000001 0 0  0.89375 0.41 0  0.4812500000000001 0 0  0.34375 0.41 0  0.4812500000000001 0.41 0  0.20625 0.41 0  0.06875000000000001 0 0  1.16875 0 0  0.61875 0 0  0.61875 0.41 0  1.03125 0.41 0  1.71875 0 0  1.99375 0 0  1.99375 0.41 0  1.340625 0.3489494290853124 0  1.134375 0.3489494290853123 0  1.700180620188976 0.3438659752031281 0  2.135782184673599 0.07126652247502523 0  1.668441847249787 0.2129203728327609 0  1.295782514339747 0.2378437748815763 0  0.8233075729931248 0.06842334294821524 0  1.409375 0.3520314716057996 0  0.403505597322782 0.182067236678212 0  0.378125 0.05794951541303489 0  0.3043468223249023 0.1518321115979534 0  2.129248544730567 0.1906135162504124 0  2.060771381434487 0.1989445750470348 0  2.013252586573865 0.1496169464686054 0  1.942766402200229 0.1734448904596831 0  1.895522487186454 0.06076163953489683 0  2.069553871656643 0.06605731020975725 0  1.274680914880868 0.3520219391081363 0  1.614713220494657 0.09473434380863296 0  0.7899021319497519 0.3149123934144827 0  0.69518737419149 0.0634051089053758 0  0.2971740475496061 0.2592172353407536 0  1.72990325744076 0.2380068107952482 0  1.356580098625191 0.2120393231351682 0  2.034370752044885 0.2668681600792073 0  1.51768709249349 0.3426260931494756 0  1.561883724969884 0.1650446847858835 0  1.197344062229598 0.2523725417393646 0  1.804085235518364 0.3468178408964637 0  1.817887819205233 0.2589243285818559 0  1.905897727272727 0.3485060975609756 0  0.6719798073392919 0.2688965171178177 0  0 0.05125 0  0.653125 0.35875 0  0.6396896119294488 0.1627615407790282 0  0.4274150154087412 0.1242548552168279 0  1.192836486056382 0.3562350748565544 0  0.8279124365364005 0.183856489168822 0  1.097485222388854 0.2083571153401724 0  1.28257088594801 0.2944411014911587 0  1.474860187679412 0.2504218616229368 0  1.406767003493824 0.2829282258560709 0  0.446875 0.04619219810344041 0  0.515625 0.04585361801037557 0  0.592043440706648 0.05125 0  1.845656689180403 0.1998310418452388 0  2.144958525570388 0.2909790873294231 0  0.6171090763650112 0.2492366900333857 0  2.2 0.15375 0  0.5145586920831158 0.3648371739579888 0  1.57794966442982 0.3540357145964566 0  0.721875 0.3633107922168974 0  0.0496154796471391 0.333125 0  0.5843750000000001 0.3662560860076676 0  0.5810878747760798 0.1474002776121195 0  1.508991196088596 0.1421783375065625 0  0.8840670607017558 0.2640994375393898 0  0.09776612425612034 0.2204896805326566 0  1.50436820029908 0.06143401634903343 0  1.223857000523521 0.0823554862453532 0  1.153316824384777 0.1289850171317837 0  2.148922302309752 0.1258841779285271 0  0.309375 0.04312325590431198 0  1.621993280276081 0.2841214267927899 0  1.550118654119087 0.2461998729100966 0  1.327182649291491 0.1216967252533594 0  1.051977450479407 0.1221382572915816 0  1.753125 0.04556020050186112 0  1.271875 0.04556020050186116 0  0.9816084133102366 0.05126138213476004 0  1.039051841454368 0.0572224914831029 0  0.9719230514536006 0.3480477870845102 0  1.94956388244759 0.1180512551534177 0  1.949997712993411 0.04965831614304109 0  1.771961817615021 0.1530278789497521 0  1.909246823951428 0.2812757146784527 0  0.2459536687882397 0.04668633953831142 0  1.948575539857022 0.2445328248721197 0  1.697271520964565 0.1233917627620729 0  0.7964897648514618 0.1211426571931604 0  1.065625 0.3689344961371042 0  1.085849084308977 0.3170853572226867 0  0.4702981435440001 0.260434880697798 0  1.577403511714593 0.05463601888079143 0  0.05622663515370135 0.05493816910862376 0  0.3267207591099919 0.3566194660323104 0  0.9003051618565143 0.3564049499960621 0  1.751571320346033 0.3651102912045228 0  0.1583785085108421 0.2994699345738728 0  0.1455283439499995 0.3542795598723423 0  2.2 0.35875 0  0.2347662494194072 0.298325008655211 0  0.1527284455616188 0.1065771775690181 0  0.1382139529076665 0.05427454456341477 0  0.8749341636311069 0.05110114999892954 0  0.643661668713109 0.05693499781019222 0  1.466879772203159 0.3611261772912453 0  1.990280163552011 0.3564754268533217 0  1.17471064520912 0.2990917256188288 0  0.5202693090594349 0.206382495511728 0  0 0.25625 0  2.2 0.25625 0  2.2 0.05125 0  0 0.15375 0  1.853978576207987 0.35875 0  0.9787513713939683 0.1487523696999336 0  0.240625 0.3722153812029779 0  1.515638456102889 0.2882700110184686 0  0.09048297387599738 0.3637717362208066 0  2.150453692751374 0.2387066338105111 0  1.323782677156475 0.04897634338873398 0  0.8074131292871642 0.3624701995505916 0  1.409375 0.03715320121951221 0  1.406484531114799 0.1087852750766809 0  1.134375 0.03715320121951218 0  1.627401732573545 0.04552157221025036 0  0.1170173172005315 0.1427610859166811 0  2.045405893604797 0.1105340662939892 0  1.255408269734577 0.1577307500159216 0  2.028125 0.03707597992059326 0  0.4743610090857199 0.1421513964721819 0  0.9354010469015898 0.250631300585664 0  0.04420832937638274 0.128125 0  0.8922386349349938 0.0992956419364831 0  0.1197849154434487 0.2663398672460083 0  1.248258025468107 0.2565907092181813 0  0.3746885856929528 0.370723531618974 0  1.203125 0.0366132337404304 0  0.5724622277005015 0.2751253816079333 0  0.3365425205162783 0.08395777655057959 0  2.072662025974815 0.2975086504196739 0  0.4581080832182547 0.3648371739579888 0  0.3874522734668214 0.2295447548840689 0  0.7827853612484443 0.04106550386289586 0  1.887722846421017 0.1760882698830035 0  1.472640588990488 0.1118278026240017 0  1.865937103925594 0.2604137786483804 0  1.463913572748262 0.2030442564990043 0  1.376426316059077 0.3186741374914345 0  0.6641993820150034 0.3141688596240831 0  0.2943117490824315 0.2130987422685822 0  0.3478153998082709 0.1666571081082676 0  0.3427990510599805 0.2575950027870776 0  0.7997118993855807 0.2216171933356366 0  
[...]
<PointData  Scalars="f_10-0"> 
<DataArray  type="Float64"  Name="f_10-0"  format="ascii">7.6131730592863219e-05  9.3907510027753177e-04  1.2183151352032078e-03  5.3212296502893328e-04  8.1649028160736689e-04  1.6420006635956758e-03  2.2701186439441213e-03  2.2564027056506805e-03  1.5549717950873964e-03  7.6081961483605927e-04  4.0523789573690731e-04  3.0793196058529734e-04  2.6705975388714682e-04  3.1420095958184372e-04  3.8790885061584244e-03  4.0437362739937488e-04  2.8988619688236463e-04  4.8665630509467954e-03  1.0858813052341664e-04  5.2931457685711329e-03  9.5460241312605326e-05  7.4825618160682559e-04  3.0372933797994921e-03  2.1949101396202681e-04  4.3446964770546435e-03  3.4775732518979633e-03  5.9427874767928562e-04  2.2666460464585824e-03  7.5980298458969457e-04  1.9487078081617411e-03  1.8483163590249838e-03  1.9027541915623322e-03  1.9724765583547300e-03  1.9772132970320498e-03  1.1696750649350051e-03  1.6970368004447026e-03  1.5450515561158799e-03  1.7201135736372023e-03  6.6593456152738532e-04  7.7358776905355473e-04  5.1216692885648887e-03  9.9203824108034505e-05  7.8205840195380300e-04  2.6279422212792478e-03  3.2768447414832490e-03  2.7108486215400183e-03  6.7957026857484043e-04  1.0573909582215831e-03  3.0818823293269438e-04  4.1035231715737686e-03  1.4821831961534936e-04  4.6041225408034432e-03  3.8624304775852049e-03  8.3285895489629700e-05  3.6708520505293026e-03  2.7944562277221986e-03  5.0215145799560688e-04  2.4437591034633982e-03  1.0503843897459685e-03  1.2583466510403571e-03  3.2600733725095424e-03  1.1572360532609122e-03  1.8149355852827215e-04  2.2460901640114052e-03  1.7059586368748225e-03  1.0752877536410774e-03  3.7022839104122355e-04  4.0356211328283409e-03  3.9977039079709363e-03  1.2648720711430894e-04  5.6620205420637119e-04  1.1427648340864955e-03  4.4504753247750764e-03  1.8237729077184833e-03  1.8811781300508043e-04  4.9470799337882922e-04  2.1143538643760085e-03  9.8136156707792068e-04  1.0872655597577701e-03  4.0761040171399905e-03  5.8062055278954310e-04  6.4848802523200866e-04  1.0107380652951321e-03  2.6522811425331080e-03  3.1835612637141123e-03  1.3936668837926259e-03  8.5682602074840569e-04  2.9087982971204170e-03  3.4864489259007606e-03  3.2142018303585890e-03  3.5449524785773419e-03  1.6141712375791276e-03  1.2877037467468427e-04  1.1666817624223752e-03  1.2696238843487645e-03  2.5904533483282000e-03  1.4913477622761503e-03  1.3368177509508742e-04  1.7226777361091887e-03  4.5702292617392200e-03  5.0638114752683556e-03  1.4272948258191103e-03  7.5205599270496343e-04  5.4964395116896862e-04  4.2222478281477016e-03  1.8071929618502533e-03  5.0603400990596277e-03  2.6005968692090009e-03  7.7172136614513077e-04  4.5341915277811735e-04  8.6900746244980044e-04  5.2409168407323795e-03  3.7251184116373536e-04  5.6137545682790318e-03  3.1298143155202322e-03  4.0085611061573928e-04  7.2996319550311503e-04  1.9454206743011910e-04  3.1223413734431048e-03  2.5157397029504165e-03  3.3008248711457288e-03  3.5761205482867935e-03  4.0087537090961105e-04  1.9601493788958895e-03  2.1858076738801363e-03  1.9798214374418021e-03  3.6406508335013648e-03  3.9867717422290214e-03  2.3928227234393802e-03  2.9042362942506908e-03  1.4313606876815716e-04  2.8813750704282885e-03  2.5163735088653359e-03  1.7946056012693249e-04  3.1643230802424179e-03  1.2953080794105174e-03  3.4978760699812769e-03  1.3194039208268914e-04  1.0446962602653868e-03  7.7314759698165377e-05  8.8539745693798932e-05  3.9710149332849434e-03  2.3004255175121968e-04  4.3314660612554191e-03  7.1660329208429708e-04  8.8706584186133816e-04  2.2729263227158790e-03  2.5025193236925345e-03  3.3810098784890592e-03  6.3917887632340112e-04  7.8203807648442284e-04  5.9269660013601421e-04  4.4737995343112737e-03  2.6032377512122829e-04  4.9961597061229969e-03  9.8048159711552042e-05  1.0108484837054662e-04  8.9674654658879280e-05  1.7084635204329978e-03  3.7715222909781199e-03  4.7350221211269411e-03  1.2454423099872777e-04  3.5399930037333278e-04  2.8871279854512898e-03  1.9962605117264309e-03  7.2448456610066858e-04  6.7965877829739396e-04  5.4403989502654069e-04  8.8683812392918433e-04  1.5879786539411021e-03  1.8347312622973360e-03  1.5742005264459214e-03  4.0999498779848561e-03  7.1318699884760151e-04  2.4381367113436555e-03  5.0035506274941121e-03  3.0789878192980930e-03  1.3856780428885703e-03  1.5124672647191088e-03  1.8659881084258315e-03  1.8926926730078824e-03  2.4420711862785088e-03  1.8430566792516187e-03  6.2690933590755691e-04  2.8870522484767290e-03  4.8031077781878780e-04  4.3690307241626512e-03  3.7235628713117291e-04  1.5924727374229480e-03  1.8839032760574479e-03  1.1825913831553484e-03  8.1225665025085373e-04  2.3496328128945593e-03  1.3784631027032562e-03  8.9699308851834707e-04  1.3995629820710278e-03  8.8333347869550742e-04  8.0497535185096870e-04  7.6971140319103835e-04  1.7934584245553599e-04  2.8280218551508156e-03  3.9881056970077064e-03  5.5452089673147767e-04  2.3333921356467370e-03  1.9305800965676505e-03  9.9208435562762789e-04  1.4724723385933149e-03  1.1492310388946047e-03  4.9676284762210426e-03  4.8325012135096105e-03  4.6595157395989536e-03  1.8418331373597726e-03  9.0982534723045919e-04  1.0135436472788059e-03  1.3254007816562955e-03  1.2093495867763750e-04  7.9871588966818480e-04  2.0666666158483568e-04  1.0548498388471289e-04  1.3824709304588326e-04  3.2284228357183382e-03  2.6093504137165552e-03  1.0724014183024317e-03  2.6538512385956018e-04  3.1999322320146271e-03  3.4155730863913375e-03  3.0131152974622786e-03  1.5213653438109083e-03  5.2447177333893574e-03  1.2107619116046356e-03  1.5247398905634921e-03  2.9505821582820075e-03  3.1897305078155210e-03  2.8291970959868880e-03  3.5657096970744791e-03  3.9635457969953575e-03  3.8378838125127366e-03  4.3117821598095572e-04  2.1616722549624044e-03  2.2690250576669676e-03  2.2877272212730006e-03  1.2098099927388185e-03  5.4341204706452196e-03  1.4158807736996497e-03  2.5949718526262428e-03  3.4724621370672490e-03  4.2442897565270025e-04  6.9498490964066309e-04  5.8567913438792763e-04  3.1228224543125974e-03  1.3718256656788557e-03  1.1808334547723243e-04  3.4370632952520730e-04  8.3125344399510718e-04  1.7192511679160394e-04  1.0644807150735777e-04  6.1425811448973043e-04  1.9986906865967344e-04  5.5822037479321407e-03  6.0446785258011929e-03  4.1414929694783727e-03  4.5225045834372977e-03  7.1521133367447292e-04  8.2017863786751702e-04  8.9259018069038016e-04  1.7631465847492058e-03  1.9152465901830704e-04  9.7036153485222955e-04  1.3360335326112896e-03  4.2644264743106836e-04  8.5910617020142142e-04  2.8710501727343841e-03  1.0551150712502647e-04  1.1474584589533708e-03  8.9698275749271433e-05  1.1275584849928097e-03  3.4844641012903273e-03  2.6148076555442316e-04  3.4031080267406229e-03  3.0031173693768668e-03  3.7878150668980734e-03  3.0688861777849246e-03  2.7979727826627633e-03  1.9026758152949131e-03  2.5864351595478938e-03  1.9549652348103130e-03  3.5125456122797956e-03  1.2810917042785500e-03  6.6887291385764303e-04  3.6641307670350048e-03  1.9882772639004395e-04  1.3491979770592661e-03  1.0832033365497488e-04  3.6863384493980669e-03  5.9060852574317410e-04  4.7228885187826433e-03  9.8164262610028578e-04  1.1389804841454172e-04  9.0335053686018915e-04  4.3548420271562957e-03  1.9662068781622715e-03  2.9152651509741648e-03  1.3686018281724702e-03  1.9779210024919711e-03  8.6270656681014589e-04  3.6920874217263622e-04  1.2311394011840235e-03  2.9966855784703808e-03  3.5163937836840551e-04  1.6455786259318187e-03  1.2356320002282575e-03  1.4963785855050058e-03  1.6442706338655163e-03  2.6686747779064973e-03  3.4743108967649288e-03  1.6084769838243973e-03  9.6403509258931308e-04  1.3234709361147679e-03  2.1532437405300405e-03  3.0689881743372954e-03  6.9725621640171062e-04  2.5493575904576488e-03  1.7905586814674086e-03  1.1967026829172098e-03  1.1058359025922326e-03  2.7984153735853632e-04  1.2753451372764782e-03  7.3034331159726757e-04  6.3127320395815778e-04  7.3376807891146491e-04  3.1747997907547562e-03  4.4424703310410527e-03  7.3334922366076472e-04  2.5204047809329259e-03  1.0309598995810016e-03  4.6381530480160138e-03  1.4941858791127599e-03  2.3010395034354821e-03  3.3299917203127648e-03  2.0809908207070835e-03  6.9950873951197092e-04  2.3867687295389665e-04  2.9650564293441828e-03  2.9235196414561251e-03  3.3189474916915830e-04  3.8718857100457019e-04  1.4101536918948651e-03  6.1042122179764534e-04  7.6116693512076150e-05  4.0757814583567498e-03  2.2264953053022517e-04  2.3746504542761782e-03  2.7228350888937394e-03  1.5699802238692182e-03  2.7222741457267295e-03  2.4522265987018390e-03  3.2227414331302919e-03  8.0797083104057097e-04  1.3556865514626007e-03  3.5442952383062365e-03  7.8230494216301356e-04  3.8792123688688000e-03  9.9340787854753309e-04  7.9726270739260508e-04  3.6973096243717325e-03  4.7087141789790808e-03  8.6827140176285131e-05  1.7379109552028503e-03  2.8545397069987217e-04  1.9385433854769839e-03  5.4641729716101313e-04  1.5663200448887760e-03  3.3190491700384921e-03  5.4601338514155386e-03  2.3943725304221728e-03  2.7301766939204727e-03  1.4210924491814194e-03  8.7267598543556892e-04  1.8514047543399071e-04  1.9967900571501394e-04  1.9852798038517382e-03  3.4306645528221200e-03  1.4511627734674439e-03  1.5455796153856960e-03  2.5050262470969974e-03  4.6001136937318891e-04  1.3889906188813794e-03  8.7994391455664472e-04  2.1213786004439634e-03  7.1526617644587613e-04  7.7327954541094068e-04  2.5589098221409172e-03  2.3897686140088676e-03  2.3194808362104200e-03  2.9660728214993362e-03  2.7889617417501565e-03  3.0126425706204804e-03  2.7532498189000694e-03  1.0912486959812747e-03  5.2476459776822082e-04  1.9094268908801591e-04  8.3413839023798012e-05  7.4620564092512829e-04  2.6188258768167758e-03  2.7442326214785441e-03  6.6250088691641304e-04  1.4279572089299426e-04  4.7969277304248745e-03  1.8965888038477302e-04  2.7066290216246065e-03  3.9682906418239006e-03  3.2955271181170110e-04  2.4423464121591768e-04  2.2826698985757405e-03  3.8045419190637996e-04  1.2347831595208773e-03  3.8051345881730141e-03  1.9860848663232574e-03  1.2531159632735364e-03  1.0718108936858445e-04  9.9692225451182293e-05  1.4772219749386365e-03  9.6935465583187705e-05  2.4950532168887419e-03  2.4942850210619128e-03  3.9152104288415774e-03  2.5719249763055513e-03  3.9265665046481569e-03  3.7208035162950931e-04  1.2572552202260708e-03  2.7666966010237061e-04  1.5562170649188514e-04  3.2412683409023561e-03  1.9015840551733505e-03  2.0142558853152239e-03  2.4623254039238163e-03  2.8254648349201150e-03  3.0105988842583594e-03  3.4712008971210240e-03  3.2753205095023227e-03  2.3240736730002838e-03  2.5488192641374492e-03  1.9657748823340218e-03  2.2635434154605200e-03  1.3373968164158431e-04  3.2655834269371743e-03  3.0155377182199605e-03  2.2172883505756505e-03  1.4371883986809381e-04  9.9026590398965456e-04  9.9233233236594256e-04  3.3485125198900377e-04  3.4694156280453371e-03  3.3977952407641059e-04  6.8757197946563500e-04  1.1040623007838671e-03  7.6832281770851374e-04  2.1782572837815879e-03  7.1395799891378815e-04  3.5004508446332926e-03  2.6098885603373931e-03  3.1832773262332510e-04  1.2934747957168286e-03  1.3987443474256375e-03  3.2869719160755445e-03  2.2956813317259171e-03  9.6235051454443164e-04  1.2621442993011958e-03  1.2417730131986241e-03  9.6577815778732849e-04  3.1252230943854698e-03  1.9564832899329984e-03  3.0288008600081046e-03  2.3253219873030848e-03  4.5896035802454839e-03  3.2616789474866161e-03  5.0522233766216759e-04  4.0889702089535324e-03  4.1607836519304735e-03  4.2834945969322464e-03  4.2731090682868985e-03  1.4901595990121431e-03  1.6536602762998300e-03  3.9913542939995989e-03  1.6469750869525870e-03  6.6868133910898890e-04  8.0036571776941339e-04  1.8221154886454767e-03  1.7944560766887836e-03  2.3125157739861540e-03  2.1029147285989611e-03  1.1071723202780693e-03  5.1349281154105652e-03  1.0659366711546457e-04  3.6219336061720482e-03  2.3284937612812282e-03  7.5406713342184733e-04  2.8523326467166572e-03  4.7890549991869467e-04  4.2921315155093533e-04  5.8691248459744473e-04  5.6971520931803517e-04  6.3463664405618095e-04  7.6250926623516659e-04  2.1889457864219383e-03  1.5598876269844178e-03  4.7652908229925016e-04  1.9926755479988571e-04  1.3864699449611496e-04  1.8740477057422988e-03  3.5454323704012035e-03  5.0733646944361626e-03  5.1854625096810283e-03  1.8132526876214191e-04  3.7796474477443733e-04  2.2957452911058035e-04  2.0301284058276076e-04  2.0874418046989193e-03  3.6424378173360427e-03  1.4552252595087360e-03  4.5180420203875518e-03  3.6887776050138522e-03  3.9798173370768951e-03  8.8928117425605307e-04  7.5954002930216969e-04  1.7602623179862869e-03  1.6704247415154137e-03  1.1977996041676905e-03  5.2427476390621620e-04  4.3787864406420713e-04  3.7437862781421511e-03  4.9507431221458443e-03  3.5263221950962709e-03  3.9307751661957100e-03  1.2909687869696149e-03  1.5685040225240118e-03  3.8238109505476588e-03  3.4282013629458982e-03  6.5993125350027415e-04  7.7885228185923280e-04  3.7942649526513048e-04  2.8041759069914237e-03  1.6351839321906706e-04  6.1611091020223260e-04  4.5379720815084783e-03  5.5535343716610894e-04  4.1596611280660754e-03  9.8689125833329979e-05  5.0613352647433290e-03  9.9619084762160448e-05  2.7795950126539471e-03  9.2924870663251897e-05  5.2326716566116586e-03  7.9751904827624192e-05  4.6708657107489716e-03  4.4091194960974283e-03  5.2853468672217708e-03  1.1479260036896343e-04  1.0363616179178717e-04  4.8029285162644146e-03  4.9341760022725981e-03  1.3375056938583245e-04  4.0414296961307416e-03  3.7219872147945996e-03  3.1027572593004741e-03  2.1338772942796559e-03  3.6232116593625458e-03  1.8575044327644597e-03  7.4225215652279602e-04  8.0229558058457669e-04  2.0014829802047136e-03  4.0967416281098828e-03  2.8515049806007195e-03  2.6136748771496592e-03  4.5595268813231659e-03  1.5190350692184402e-03  1.2043581563226597e-03  6.5169219207586676e-04  9.6880269603605925e-04  9.3976636909159981e-04  2.3814818942258921e-03  2.3554521878479498e-04  7.9501472703099446e-04  6.4563676641200634e-04  1.4426402169271794e-03  1.0321868723596934e-03  1.8730751378818970e-03  4.8919607285160781e-03  1.3369124984090456e-03  2.4731226445717223e-03  1.5251774642022133e-03  1.9556617796089386e-03  1.0378080544782670e-03  6.8784865273054119e-04  5.2382340268165438e-04  9.6796093494365550e-04  3.3954370826956456e-04  2.3665085291356362e-04  1.9308770447713016e-04  3.1376841234000861e-03  1.4028042671476308e-04  1.8105953299566836e-03  1.7785121672440583e-03  3.5602674109943074e-03  1.6349701378156467e-04  2.2716107154007398e-03  2.0561840242844121e-04  6.8539652033159477e-04  1.7388069729525261e-03  2.0553802217307760e-03  8.7533289984358998e-05  8.3169404018570124e-04  6.3228796071282461e-03  5.6089607390978386e-04  7.2807728797375448e-04  1.4333326090842410e-03  1.0094603173188038e-03  8.0886089046574422e-04  1.9026907565310672e-03  9.5684780800131737e-04  1.0850904607740686e-03  1.5738799562048818e-03  2.2239712431338563e-03  9.7042690697142302e-04  4.4490568885638751e-03  2.5058040378507056e-03  2.6614616064692021e-03  3.6089557117473217e-03  4.6135084468345265e-04  2.9675051906557530e-03  2.9455821625612270e-03  2.4924116683563593e-03  7.9495168120301653e-04  6.1523275812635126e-04  7.2435095860512184e-04  7.9049814422775088e-04  3.6949367318864714e-03  4.8830508056116207e-03  3.4004880444601466e-03  7.4420442692918866e-04  3.1004190989875049e-03  2.2091163508645654e-03  5.2525956815807472e-03  3.1981717779459773e-03  3.2908103087177193e-03  4.5454166962387368e-03  1.5991772624675054e-03  8.0029272256159300e-04  4.3866157103070543e-04  9.0821634696597060e-04  2.3806142996997573e-03  3.2011821026831709e-03  3.1953163372797585e-03  1.6504005015143936e-03  3.6515956334226773e-03  7.4469288756034567e-04  2.6684846533405301e-04  1.3759364121992460e-03  4.6903860534465869e-03  1.6936206496767539e-03  1.1419459474337832e-03  1.6005963527635472e-03  2.1364185229518482e-03  3.1936928792076500e-03  1.2668040321530713e-03  1.2207673316020295e-03  1.4226242324824254e-03  3.2943610280133837e-03  7.6332443314401806e-04  8.8500682912510216e-04  9.4572620480677964e-04  2.5849337155484080e-03  2.3833896906489556e-03  7.7321870290534308e-04  1.6299225604869769e-04  1.4465641521504716e-04  8.2445935055711409e-04  5.3092430358644277e-03  1.0560212658725974e-04  2.9489838618259858e-04  2.0762548703323444e-03  7.1918126050091050e-04  5.9325354844390094e-04  1.4294948217415576e-04  3.4270376308657147e-03  8.0010271632376887e-04  2.8404601834078764e-04  2.2716818171923539e-04  2.3875417706116855e-04  5.1840764381936291e-03  1.7285305749019811e-03  5.1579534007902179e-04  2.6429067052656228e-03  1.5496922740462677e-03  2.6451456415811669e-03  1.1850885647220161e-03  1.0718171688688482e-03  1.0017795916253051e-03  4.4339946700108820e-03  2.3676486929785786e-03  2.0875417846310676e-03  2.7168486239411587e-03  1.3326389524330724e-03  2.2432179774669399e-03  1.4649596944094712e-03  1.2896073076327735e-03  1.1325785249674070e-03  3.7916630496764923e-03  1.0607246959966946e-04  1.3400659701736097e-04  1.3985353507579251e-03  7.7244694970510577e-04  1.8082740477235065e-03  1.6726107844149544e-03  1.1949126607147911e-03  1.7062738019933460e-03  3.3764530891039297e-03  9.4470666612045243e-04  4.3524426805237604e-03  4.2769068384966805e-03  4.8400884335030557e-04  1.9925593384838500e-03  1.9609643368796534e-03  1.1988906133366915e-03  1.4057664946709630e-03  3.2114612850595047e-04  3.8003052455234981e-03  1.7800849512612004e-03  9.1652288028974129e-04  9.6046355418919426e-04  5.9824324672495387e-04  3.0571057192814135e-04  1.3717086826317477e-03  1.4875340097379969e-04  1.0290671293918931e-03  1.2817814831926251e-03  2.8166465854855439e-04  5.4839291302012942e-04  1.7973988711862749e-04  2.8446251978757934e-03  1.0402117400585447e-03  6.4836872635273054e-04  4.4471065484721472e-03  2.9058180207073999e-03  7.4396595995465382e-04  3.9517441617904535e-03  1.4861914018441883e-03  4.6704401535079230e-03  2.5766652238963677e-03  1.0446925614240228e-03  4.7407522653511178e-03  3.2080780644497113e-03  3.6928810396912011e-03  4.7572490631446881e-03  2.3418596183160414e-04  7.9350973523511939e-04  8.1168452312573014e-04  1.0574347313938881e-03  8.1646070429806374e-04  1.0956595277323166e-04  1.5690398196041241e-03  9.3322513348682694e-04  2.7718953365982197e-03  3.5682958466756280e-03  2.8649316423443295e-03  2.7741012394993467e-03  2.7789238611382640e-03  2.0799412602491656e-03  2.9470707895956579e-03  3.3027066776176116e-03  4.9127263079276314e-03  2.1424089381895288e-03  6.3440012579896849e-04  7.1142288864257540e-04  5.4014694229475148e-04  7.4001480066883656e-04  1.0869202861636074e-04  1.3177116709230382e-04  3.4180319865000685e-03  3.8272657660981765e-03  5.6091940828868481e-03  1.6675685512151474e-03  8.9523723848967463e-05  5.3306875857805315e-03  3.6696159463853717e-03  1.0158727674659790e-04  2.8909492121769183e-03  1.2536533217169675e-03  3.1861079337808094e-04  2.4043630966008703e-04  9.2000734499905431e-04  8.1483980409757600e-04  2.3018779373614500e-04  2.2597031223008076e-03  1.2784189445818787e-04  7.2059648099255080e-04  1.0439377205882901e-04  1.1680142612217205e-04  5.5618618507344772e-03  6.9353107340944936e-03  2.0597519366952794e-03  1.2924063170525555e-03  3.4334645248260863e-04  1.7075943656893755e-03  1.3044625668839377e-03  1.6440521922619687e-03  8.2816677600933814e-04  3.5031357681379817e-03  2.3234188470357118e-03  1.8821840043495815e-03  1.1577876308191640e-04  8.5071519704951282e-04  2.3596697496605611e-03  2.2772253853565764e-03  1.3865065080475057e-04  3.3258628826936800e-03  8.7567061604540983e-04  2.3165659332351207e-03  2.4821996731798743e-03  4.8128804387820843e-04  1.0401325067307908e-03  2.8102478347557460e-03  4.8880254832997889e-03  2.1552093891826145e-03  5.2644803203188775e-03  8.3199922365820625e-04  1.8879791284509818e-03  3.5290735999924549e-04  1.6722710325691066e-03  3.1714871044075