<?xml version="1.0"?>
<VTKFile type="UnstructuredGrid"  version="0.1"  >
<UnstructuredGrid>
<Piece  NumberOfPoints="2446" NumberOfCells="4585">
<Points>
<DataArray  type="Float64"  NumberOfComponents="3"  format="ascii">0 0.41 0  0 0 0  2.2 0 0  2.2 0.41 0  0.2404508497187474 0.2293892626146237 0  0.25 0.2 0  0.2404508497187474 0.1706107373853764 0  0.2154508497187474 0.1524471741852423 0  0.1845491502812526 0.1524471741852423 0  0.1595491502812526 0.1706107373853764 0  0.15 0.2 0  0.1595491502812526 0.2293892626146237 0  0.1845491502812527 0.2475528258147577 0  0.2154508497187474 0.2475528258147577 0  1.1 0 0  1.1 0.41 0  0 0.205 0  0.55 0 0  0.55 0.41 0  0.275 0 0  0.275 0.41 0  1.65 0.41 0  1.65 0 0  0.8250000000000001 0.41 0  0.8250000000000001 0 0  1.375 0 0  1.375 0.41 0  1.925 0 0  1.925 0.41 0  1.5125 0.205 0  1.7875 0.205 0  0.6875 0.205 0  0.9625000000000001 0.205 0  1.2375 0.205 0  2.2 0.205 0  0.4687002074688797 0.2068568464730291 0  1.99375 0.2152743902439024 0  2.0625 0 0  2.0625 0.41 0  2.2 0.3075 0  0.4125 0 0  0.4125 0.41 0  1.7875 0.41 0  1.375 0.1486128048780488 0  1.5125 0 0  1.7875 0 0  1.5125 0.41 0  0.8250000000000001 0.2613871951219511 0  0.9625000000000001 0.41 0  0.9625000000000001 0 0  0.6875 0.41 0  0.6875 0 0  0.1375 0 0  0.1375 0.41 0  1.2375 0 0  1.1 0.1486128048780487 0  1.2375 0.41 0  1.65 0.1486128048780487 0  1.126715909090909 0.2793064024390244 0  1.676715909090909 0.2793064024390244 0  0.8517159090909092 0.1306935975609756 0  1.348284090909091 0.2793064024390244 0  0.34375 0.3032389320646208 0  1.894702181800738 0.1282910975492754 0  2.092797818199262 0.1282910975492754 0  1.85625 0.3075 0  0.61875 0.3075 0  0.61875 0.1025 0  0.3648540804333487 0.1240075933101478 0  0 0.3075 0  0 0.1025 0  2.099172119769978 0.25625 0  0.48125 0.09238439620688085 0  0.5781001037344399 0.2059284232365146 0  0.48125 0.3196743479159776 0  0.7265881057911006 0.3055240343720796 0  1.99375 0.08395950269330846 0  1.459960956013612 0.3075 0  1.569025960719943 0.2986889805672169 0  0.75625 0.08213100772579164 0  1.03125 0.3278689922742084 0  0.923871252904788 0.3078247185783941 0  1.959375 0.3126371951219512 0  1.749222215368287 0.1025 0  1.275777784631713 0.1025 0  2.2 0.1025 0  1.225938124459196 0.3075 0  1.550777784631713 0.1025 0  1.000777784631713 0.1025 0  1.44375 0.07430640243902442 0  1.16875 0.07430640243902437 0  1.899250267340833 0.2229966846119207 0  0.1020898364287272 0.3140258291809757 0  1.766482954545455 0.2934032012195123 0  0.3405058858996321 0.2119987970531874 0  0.7710785630958338 0.1710968191298857 0  1.046078563095834 0.2389031808701144 0  0.2 0.3400647632937836 0  1.421109702350723 0.2261157654379721 0  0.2800464974185557 0.08982544815605742 0  0.098916018031319 0.09171660955420841 0  2.13125 0 0  2.118919042110979 0.3422084711244843 0  1.30625 0.41 0  0.89375 0 0  1.597888256393107 0.2173787389261347 0  0.20625 0 0  1.829299675393195 0.07400700849299596 0  1.71875 0.41 0  1.16875 0.41 0  2.038220665644273 0.332420740103091 0  0.34375 0 0  0.417496017710808 0.2696595573092803 0  0.2 0.07687845740457822 0  0.9295982307099278 0.1343158415898188 0  0.07390688010811153 0.1697064032433452 0  0.5238366813727013 0.2578302467013575 0  0.05452951551825875 0.25625 0  0.5229630068078351 0.1548816096928243 0  1.452769549894695 0.1548122580621249 0  1.369219062229598 0.07430640243902442 0  1.30625 0 0  0.8504409521244898 0.3356935975609756 0  0.8821881244591965 0.205 0  1.720943423819132 0.1714577452753128 0  1.157188124459196 0.205 0  1.094219062229598 0.07430640243902437 0  1.03125 0 0  1.304056576180868 0.1714577452753128 0  1.67579304192913 0.07430640243902437 0  0.2751941921308361 0.3346083473122598 0  1.209670467133757 0.1362100266964769 0  1.025335513626278 0.1700681449722324 0  0.7562500000000001 0.41 0  1.58125 0 0  0.7567170593862014 0.2409196493502535 0  0.6926714215682891 0.1272249611432207 0  0.4139715849905988 0.3397932387114203 0  0.9840787304190477 0.2717749043358119 0  0.06875000000000001 0.41 0  0 0.35875 0  0.9281250000000001 0.06276726142697993 0  0.5507396469029935 0.3219409231578227 0  0.5504468037989405 0.09136885600634273 0  1.58125 0.41 0  1.631724228912893 0.3381867502687533 0  1.825608881788174 0.14499488549201 0  1.85625 0 0  1.44375 0 0  1.44375 0.41 0  1.85625 0.41 0  2.13125 0.41 0  0.7562500000000001 0 0  0.89375 0.41 0  0.4812500000000001 0 0  0.34375 0.41 0  0.4812500000000001 0.41 0  0.20625 0.41 0  0.06875000000000001 0 0  1.16875 0 0  0.61875 0 0  0.61875 0.41 0  1.03125 0.41 0  1.71875 0 0  1.99375 0 0  1.99375 0.41 0  1.340625 0.3489494290853124 0  1.134375 0.3489494290853123 0  1.700180620188976 0.3438659752031281 0  2.135782184673599 0.07126652247502523 0  1.668441847249787 0.2129203728327609 0  1.295782514339747 0.2378437748815763 0  0.8233075729931248 0.06842334294821524 0  1.409375 0.3520314716057996 0  0.403505597322782 0.182067236678212 0  0.378125 0.05794951541303489 0  0.3043468223249023 0.1518321115979534 0  2.129248544730567 0.1906135162504124 0  2.060771381434487 0.1989445750470348 0  2.013252586573865 0.1496169464686054 0  1.942766402200229 0.1734448904596831 0  1.895522487186454 0.06076163953489683 0  2.069553871656643 0.06605731020975725 0  1.274680914880868 0.3520219391081363 0  1.614713220494657 0.09473434380863296 0  0.7899021319497519 0.3149123934144827 0  0.69518737419149 0.0634051089053758 0  0.2971740475496061 0.2592172353407536 0  1.72990325744076 0.2380068107952482 0  1.356580098625191 0.2120393231351682 0  2.034370752044885 0.2668681600792073 0  1.51768709249349 0.3426260931494756 0  1.561883724969884 0.1650446847858835 0  1.197344062229598 0.2523725417393646 0  1.804085235518364 0.3468178408964637 0  1.817887819205233 0.2589243285818559 0  1.905897727272727 0.3485060975609756 0  0.6719798073392919 0.2688965171178177 0  0 0.05125 0  0.653125 0.35875 0  0.6396896119294488 0.1627615407790282 0  0.4274150154087412 0.1242548552168279 0  1.192836486056382 0.3562350748565544 0  0.8279124365364005 0.183856489168822 0  1.097485222388854 0.2083571153401724 0  1.28257088594801 0.2944411014911587 0  1.474860187679412 0.2504218616229368 0  1.406767003493824 0.2829282258560709 0  0.446875 0.04619219810344041 0  0.515625 0.04585361801037557 0  0.592043440706648 0.05125 0  1.845656689180403 0.1998310418452388 0  2.144958525570388 0.2909790873294231 0  0.6171090763650112 0.2492366900333857 0  2.2 0.15375 0  0.5145586920831158 0.3648371739579888 0  1.57794966442982 0.3540357145964566 0  0.721875 0.3633107922168974 0  0.0496154796471391 0.333125 0  0.5843750000000001 0.3662560860076676 0  0.5810878747760798 0.1474002776121195 0  1.508991196088596 0.1421783375065625 0  0.8840670607017558 0.2640994375393898 0  0.09776612425612034 0.2204896805326566 0  1.50436820029908 0.06143401634903343 0  1.223857000523521 0.0823554862453532 0  1.153316824384777 0.1289850171317837 0  2.148922302309752 0.1258841779285271 0  0.309375 0.04312325590431198 0  1.621993280276081 0.2841214267927899 0  1.550118654119087 0.2461998729100966 0  1.327182649291491 0.1216967252533594 0  1.051977450479407 0.1221382572915816 0  1.753125 0.04556020050186112 0  1.271875 0.04556020050186116 0  0.9816084133102366 0.05126138213476004 0  1.039051841454368 0.0572224914831029 0  0.9719230514536006 0.3480477870845102 0  1.94956388244759 0.1180512551534177 0  1.949997712993411 0.04965831614304109 0  1.771961817615021 0.1530278789497521 0  1.909246823951428 0.2812757146784527 0  0.2459536687882397 0.04668633953831142 0  1.948575539857022 0.2445328248721197 0  1.697271520964565 0.1233917627620729 0  0.7964897648514618 0.1211426571931604 0  1.065625 0.3689344961371042 0  1.085849084308977 0.3170853572226867 0  0.4702981435440001 0.260434880697798 0  1.577403511714593 0.05463601888079143 0  0.05622663515370135 0.05493816910862376 0  0.3267207591099919 0.3566194660323104 0  0.9003051618565143 0.3564049499960621 0  1.751571320346033 0.3651102912045228 0  0.1583785085108421 0.2994699345738728 0  0.1455283439499995 0.3542795598723423 0  2.2 0.35875 0  0.2347662494194072 0.298325008655211 0  0.1527284455616188 0.1065771775690181 0  0.1382139529076665 0.05427454456341477 0  0.8749341636311069 0.05110114999892954 0  0.643661668713109 0.05693499781019222 0  1.466879772203159 0.3611261772912453 0  1.990280163552011 0.3564754268533217 0  1.17471064520912 0.2990917256188288 0  0.5202693090594349 0.206382495511728 0  0 0.25625 0  2.2 0.25625 0  2.2 0.05125 0  0 0.15375 0  1.853978576207987 0.35875 0  0.9787513713939683 0.1487523696999336 0  0.240625 0.3722153812029779 0  1.515638456102889 0.2882700110184686 0  0.09048297387599738 0.3637717362208066 0  2.150453692751374 0.2387066338105111 0  1.323782677156475 0.04897634338873398 0  0.8074131292871642 0.3624701995505916 0  1.409375 0.03715320121951221 0  1.406484531114799 0.1087852750766809 0  1.134375 0.03715320121951218 0  1.627401732573545 0.04552157221025036 0  0.1170173172005315 0.1427610859166811 0  2.045405893604797 0.1105340662939892 0  1.255408269734577 0.1577307500159216 0  2.028125 0.03707597992059326 0  0.4743610090857199 0.1421513964721819 0  0.9354010469015898 0.250631300585664 0  0.04420832937638274 0.128125 0  0.8922386349349938 0.0992956419364831 0  0.1197849154434487 0.2663398672460083 0  1.248258025468107 0.2565907092181813 0  0.3746885856929528 0.370723531618974 0  1.203125 0.0366132337404304 0  0.5724622277005015 0.2751253816079333 0  0.3365425205162783 0.08395777655057959 0  2.072662025974815 0.2975086504196739 0  0.4581080832182547 0.3648371739579888 0  0.3874522734668214 0.2295447548840689 0  0.7827853612484443 0.04106550386289586 0  1.887722846421017 0.1760882698830035 0  1.472640588990488 0.1118278026240017 0  1.865937103925594 0.2604137786483804 0  1.463913572748262 0.2030442564990043 0  1.376426316059077 0.3186741374914345 0  0.6641993820150034 0.3141688596240831 0  0.2943117490824315 0.2130987422685822 0  0.3478153998082709 0.1666571081082676 0  0.3427990510599805 0.2575950027870776 0  0.7997118993855807 0.2216171933356366 0  
[...]
<PointData  Scalars="f_10-0"> 
<DataArray  type="Float64"  Name="f_10-0"  format="ascii">3.0987621422881496e-06  4.8915477737888294e-04  4.5066030406889847e-14  1.8989848846250882e-14  6.1431414108818294e-04  1.4069787786808073e-03  2.0064314636254747e-03  1.9839192030876303e-03  1.2917142390251740e-03  5.1272022929975197e-04  1.7451467687154101e-04  9.5086907704185515e-05  6.8014030276517462e-05  1.2422694856738012e-04  3.5454116721608190e-04  3.0591612072035998e-05  6.1876009443943893e-05  4.3572407249596020e-03  2.0524149233850143e-05  4.8837454418935479e-03  6.2941864745674567e-06  1.3066148472207723e-08  5.0414789627499432e-08  7.5514857039470123e-05  2.4360787250280978e-03  9.4413012820533096e-06  1.5364580327363565e-06  7.5532060720771914e-11  2.4185250792835001e-11  1.9216868143855681e-06  7.3493020089823705e-09  1.5897625324325765e-03  8.8713954141087902e-04  1.0230826129673427e-04  1.9492055443488431e-13  1.4692699546106345e-03  4.4387938579915066e-11  1.8343177283204404e-12  6.2891038651316637e-13  9.6231536445905317e-14  4.7126770775135791e-03  8.8797230212270322e-06  6.1305110940345311e-10  2.1736579137525015e-05  8.4902659499155631e-07  2.1473061728668250e-09  1.7290412791503866e-07  6.9883484863215734e-04  6.3168689875045832e-05  1.1426502029893966e-03  5.0794452338072620e-05  3.6502371469671231e-03  3.4282134011050084e-03  4.0358873650407850e-06  7.2300803092994825e-05  5.1877187121878950e-04  8.8381319134674819e-06  1.6560054969446919e-07  1.4794061214162189e-04  4.8822211672906528e-08  2.1659730981756832e-03  1.3661966798678738e-05  4.4935916617686378e-05  6.2221807847714496e-10  3.3738931521592387e-12  7.0007014218254391e-10  2.3898190930502104e-04  3.6044739708085229e-03  3.6754772718881165e-03  1.1992041049926836e-05  1.9457605441499629e-04  2.1369303223923483e-12  4.0854907004739963e-03  1.5766933144712241e-03  7.2579384682239985e-05  3.2961498705407345e-04  4.1277574802211152e-11  1.9422530817186541e-06  3.2776972457179497e-07  3.1914207517366056e-03  1.4045328634961252e-04  2.8946473641672287e-04  5.3578866591976887e-11  1.8408286281225765e-08  8.6462005210558046e-05  1.8649374627684657e-13  4.2197892842089584e-05  1.1172673680963679e-06  1.1807539216369359e-03  6.6365528688211314e-06  2.8140313371986380e-04  4.7339864560864849e-10  1.2268622573619116e-05  6.2934955710463092e-09  1.0575582129268438e-03  2.0362777032270634e-03  4.1129408490255990e-04  1.4589927217652136e-05  7.6291778442990749e-06  4.2363225099656815e-03  4.6904304844080100e-03  2.3658271901976442e-13  5.2980550453614768e-13  3.9127367475576757e-06  1.7487466555390831e-03  3.7188416997088944e-07  4.6413103777781621e-03  2.4119763736236329e-09  3.1461532381819649e-09  1.7634450612939805e-05  5.2745104578935877e-12  4.8365845976642155e-03  2.2220205629121877e-04  5.2657558265738766e-03  1.5964735106425293e-03  1.2839262892361310e-04  5.6197480425118249e-04  2.8735064786477868e-05  2.8173585536658097e-03  6.3678191294648979e-06  2.1553776368357015e-05  2.6794341284313701e-05  1.9929862953698316e-04  1.1974765617292112e-03  3.5539843190176220e-08  2.3280418023544541e-04  5.7550533182841558e-04  6.7994078706446045e-04  5.4441880145859070e-05  7.8596450673869729e-08  1.8937529376337747e-05  1.8746021256808938e-04  8.0642076287997075e-04  6.5264284753436871e-05  2.2212515487874371e-07  9.8204407922002448e-04  2.9996872963581459e-03  2.3400550749911147e-05  3.9216224534760122e-04  3.2316600070407882e-06  5.0004898214764815e-06  1.7669329420925326e-03  1.1532259226134396e-04  3.9409976006873773e-03  4.9502632818532795e-08  6.2092431275221902e-08  3.4224442634429242e-09  4.0694847460790280e-10  2.8523977510976527e-06  5.6176700935169129e-07  1.3463577725619745e-10  9.6799781077013256e-14  3.0864585057216762e-03  7.2442328402125571e-05  4.5609214474608781e-03  7.3255447482318385e-06  1.2369679235818660e-05  5.0343353670316675e-06  1.2621458515074428e-03  1.7206667194632409e-04  4.0659703087271891e-03  3.4534167861832451e-05  4.6224404964010550e-05  1.0943458560636574e-08  1.1214485172961143e-11  4.2449085959327032e-12  6.1988384704812492e-06  5.2737274636743157e-05  1.4286787030075191e-08  7.2968087885576437e-13  9.3305555825391668e-08  4.0132974970503015e-05  2.7298997511123503e-03  2.3046137292748656e-06  2.1766415528010636e-03  4.6237700776775217e-03  2.7912742637133865e-03  1.2155272485601526e-12  7.8597515716476749e-12  3.0142876149729176e-11  1.8778525993957852e-10  4.2556787702420035e-10  4.4500115644647846e-12  1.3264464298633000e-05  3.1417885185658932e-07  2.9145102361600485e-04  3.6528399109549640e-03  1.9795646641763829e-04  2.2075620754362166e-08  2.1569403224506434e-05  1.1331255899347811e-11  4.7127917511186192e-07  9.1490599408712566e-07  1.0603867784879469e-04  1.4286910649169799e-09  2.6048995550337661e-09  1.2567236791415702e-10  6.1436013018672533e-04  3.4171735270434057e-04  7.7778448201047185e-05  2.4805906777402597e-03  3.6591818257126472e-03  2.8882336388874762e-05  1.6521636820645560e-03  3.7762938553699543e-04  2.6550275586949062e-05  2.6848736069435075e-06  5.7855505346891643e-06  4.5716628556337667e-03  4.4100775198679890e-03  4.1661556097666967e-03  1.8840004349979127e-09  4.5859979212461389e-13  8.1644896869640510e-04  2.0621667230495305e-13  2.5648552805602888e-05  1.3442784088164107e-07  9.5587078527470027e-05  7.8538173797308121e-06  4.3420358983772072e-05  2.8955550958137248e-03  2.4863466547556189e-06  6.0982283505133645e-04  5.4281023814555008e-05  2.0960151479829321e-06  1.5701058343776142e-04  3.3994982442994752e-04  6.9461120015736858e-13  4.8560704528296927e-03  1.4039456108051509e-07  7.4832730181244164e-07  4.4164762705023270e-05  8.1090048544509355e-04  1.0618362182633716e-08  7.0558068214969234e-05  1.2643223307264597e-03  8.5800220473955340e-04  1.2990338228263730e-04  1.5181099119769901e-10  9.1474971959965489e-11  1.1814770324067443e-08  2.4851705279252507e-10  5.0473425399769128e-03  1.2103221948686291e-10  6.1029344998077742e-08  2.6036523460001137e-03  6.1082009664733229e-05  1.2065604383217121e-04  4.2520839656242921e-04  4.9903481323744036e-07  9.4908885631977491e-04  1.2511262881420482e-05  1.3161498741375786e-04  3.3396724337529856e-09  2.4456253724880066e-05  7.9773542371430028e-06  4.9587620795961978e-14  3.8353321465248772e-05  5.2557669577267627e-03  5.6436504686628395e-03  2.2341104511411571e-03  3.9403646675417866e-03  8.2639162719775186e-07  1.3372602258322296e-11  7.7018367550727077e-05  1.5290898647001918e-03  2.8161870323972606e-05  1.4964385879508085e-13  1.1483372588623904e-13  1.2618489713189698e-04  3.7442520915208660e-10  1.1806642118643868e-03  8.3137415668353650e-06  9.4205612107794706e-07  5.1188131095281776e-06  5.6210527133986222e-13  3.5657897872071243e-05  1.1898985247139838e-04  8.3347522803478128e-06  1.3647983249420466e-05  3.2875941023467531e-04  1.6413027644621431e-07  2.5037548265659628e-03  1.1869526242493046e-11  1.0496238964376702e-04  9.3233730981036887e-12  3.1984475017076117e-03  6.2211766455144224e-04  3.3463338780598712e-04  2.0694100060633810e-03  3.0615239085531284e-05  5.9370021888088844e-05  1.0585263622511937e-05  1.5414309056906156e-04  4.3510090351153128e-04  4.3706307273483477e-03  3.1447586565745228e-12  1.7037406328398384e-05  7.1354856976498470e-04  3.0448976197044175e-03  7.4689189712391119e-10  4.6126590287733673e-06  8.4359911103693483e-10  4.4216607749015892e-06  5.8717288464367987e-06  2.3568269357281268e-04  1.0168817206736801e-03  2.7124984292626660e-03  1.8803797002081991e-04  1.2003027741981920e-03  1.8219889369876909e-08  7.7661634880174226e-09  1.1111692546293861e-12  2.2230880520302462e-03  2.8499754948498120e-03  5.8492449489450581e-04  2.7533798474978878e-04  2.6419619252116526e-04  1.4023024086899255e-05  2.7810189071083772e-03  1.6818940943230782e-12  4.3078710429288217e-07  1.5220156198692434e-03  9.4053342238567940e-04  2.0431415621232262e-09  5.7593250019901154e-05  3.7602394094641822e-11  1.7804506764675168e-13  2.4879729190598491e-13  1.2475432427253581e-12  2.7438986163336055e-03  3.4236043643026148e-03  2.5605525101947488e-08  6.9510065083512644e-09  1.7706722580727501e-11  4.2119928466354990e-03  1.1549929544063755e-05  1.8179812940494330e-04  1.5856329078866950e-06  2.1998395387906462e-07  9.4244766781728725e-08  7.4674332404040339e-05  2.3326220353791190e-08  2.8644593866282709e-08  5.5466462061110457e-05  8.0668809673565249e-05  2.2250177204957277e-13  9.3811623793387778e-14  3.0870077166079523e-06  3.5490186732750279e-03  1.0071296209908192e-04  1.2723668894229604e-03  1.6710561745220385e-03  1.5447317385286276e-07  3.6664933776401356e-09  1.0860220990819989e-09  4.4519842686939456e-07  3.1459592548699187e-11  1.1450994949980613e-03  3.2470600038712371e-03  2.8959578100622213e-10  5.6645516536458552e-04  8.9657664108127319e-09  2.0261116333029405e-08  1.5017358256997919e-03  4.3428443545669663e-03  4.5668485176512478e-06  9.4775588347427025e-12  7.0134226641502823e-05  9.1467908682256158e-07  1.5922992587944256e-05  3.3400074200269370e-12  3.2570507591923060e-06  5.0554385402564175e-03  5.8070726699168524e-04  2.4543116350265650e-03  3.2740587636291880e-07  6.0437231878689710e-04  5.5128813006629729e-05  7.5260709462736465e-05  1.5885195477794809e-03  4.2496441409966857e-04  9.2856924272528916e-04  2.2923018745335798e-04  3.4729789809693286e-04  2.1036005450678985e-04  5.1844764128534835e-13  1.3351935532904769e-05  3.0094123971397418e-11  4.1385270943585509e-04  5.6673443178158245e-11  8.5423260960163726e-10  1.7766977521605639e-10  2.2349997288480198e-10  2.3118401066835785e-06  3.8405083064668109e-08  6.3661403506075911e-08  1.4973576865334813e-07  6.4219374168755848e-04  2.5493321633983065e-04  4.4311469792590432e-05  4.1759363387006271e-06  2.9762261018043462e-12  1.2019808430330364e-05  2.3566187649262391e-03  2.1311610436559587e-04  1.5387795236989429e-05  4.3327067454282013e-03  3.2411284651077400e-05  8.1967486251868388e-09  3.3151771240996913e-03  9.8554753422429891e-05  1.2923203825609343e-04  3.2655322169336153e-06  9.8077656069670734e-05  1.3259742050427046e-04  2.4116755114697926e-03  1.3489132203092985e-11  3.6270964325202029e-06  8.9555864058764580e-06  6.8491288948758365e-06  1.4059726532636081e-06  6.7815338957371152e-06  2.1959901461262241e-03  2.2251208660248362e-03  3.5741469369463064e-03  2.2872963889310292e-03  3.6106504949808800e-03  2.3356861570407613e-04  1.0511799747389393e-03  1.0573404304714417e-04  1.8461803737039141e-05  9.6610036472722098e-07  1.8068512589404800e-08  6.4951338142033846e-05  2.8468057167162603e-08  6.9584690277257652e-05  2.4170010201134690e-05  1.8019962645683078e-05  6.1825637748463575e-04  7.8094554394006874e-08  3.5881217047895029e-05  8.6180231649619823e-11  1.9430339176914099e-03  1.9865111852435968e-05  2.3057195693901951e-04  1.2878870028871516e-04  1.8377394604388315e-03  1.8110688973541773e-05  1.4577453179675295e-07  3.8415976605012821e-08  1.8085210149054566e-04  3.1756787318169503e-03  1.5933724561310435e-04  2.8499512319258587e-04  9.0947485368906590e-04  3.7491545976438690e-08  4.6175564303787952e-07  2.1562609420496450e-07  3.0723882397340114e-03  9.5712576102947333e-10  1.8062123653327786e-04  6.2889621932678617e-12  1.7250545501125363e-11  5.2354714176708895e-05  2.0347581932142517e-03  1.2476117183504931e-12  1.5175373946672849e-12  4.4700911149039519e-13  3.7540318325156289e-09  1.0698670139655835e-06  6.1337309303142649e-04  1.0182117561344211e-03  9.0984924511976488e-04  3.8287285867595281e-03  1.1739201505341907e-05  6.5704907768694029e-05  1.4403570269883885e-03  1.8355430993036367e-03  2.0849200408141954e-03  2.4777085258335320e-03  3.9030504129843876e-13  1.4660143235471263e-12  9.2932965611273197e-04  1.1869902141202700e-10  3.8686267504203223e-13  5.7392922978929159e-04  1.3598728513484031e-04  9.2704744567403670e-04  1.5376147014501693e-09  5.7327395997577557e-09  9.0809981000856553e-04  4.7503988100996274e-03  1.1557288123625361e-05  1.7726647438433137e-03  2.0695088184084207e-03  2.9913779003328954e-04  2.1295354034966667e-03  2.8510088164484590e-05  2.3696038377828342e-05  6.4991743037026020e-06  2.4009711538649407e-06  2.8208719388085925e-06  8.5630065717059878e-05  8.1174912515834138e-06  1.5650424911919149e-12  1.2372600069840759e-05  7.1766643757861353e-05  4.1262132104967332e-05  1.6366363807979955e-03  3.2385647065434342e-03  4.6778211574879077e-03  4.7800727461521589e-03  7.1343895186820583e-05  2.4236119681196179e-04  1.1744112004183676e-04  9.6833357155784723e-05  1.7085797190944046e-09  9.8778234748688636e-05  6.2106318563244598e-04  4.1333522439731428e-03  3.3443081005441857e-03  3.5947269929410002e-03  3.6376551400507727e-06  6.1057307023458830e-09  5.0831435607044725e-11  1.9471179796719648e-11  7.0752907704394342e-11  5.8142096629907116e-06  3.6987479751539504e-05  2.2390852010778975e-04  4.5369029695478272e-03  1.6185109899292739e-05  5.0035048954916248e-04  8.8396636984084965e-14  6.3304361934754759e-13  2.4899713504957427e-04  5.3799542350441197e-06  3.1753170101654016e-07  1.4602203986334266e-09  3.8381090480330345e-05  5.2512586966850165e-09  5.9094900943405234e-05  9.0877109337197086e-07  3.3879099145042802e-03  3.8219280778256277e-14  1.4387694791058547e-03  7.9564207286953297e-06  4.6425717590264232e-03  1.0081874153221734e-05  2.3384344430303233e-03  5.6849423633045804e-06  4.8182606864831910e-03  3.5456370847878463e-06  3.8743921561048686e-03  2.7649826802438157e-03  4.8792994120925555e-03  2.6493414296126975e-05  1.5575489118985188e-05  4.2256872121840443e-03  4.4692611611073206e-03  4.1319310619919572e-05  8.9731685789902515e-04  1.1011782505910337e-04  1.0648246651761394e-07  2.8695728020722982e-11  4.4435460081094672e-05  4.4731153004544804e-12  9.8630085094958900e-12  5.9147689729942549e-09  3.0292043599965216e-11  2.9864713643702524e-03  8.2064041220677027e-06  2.6293927960301756e-04  4.2087013235438155e-03  2.3369201915448753e-05  2.3462932410907869e-05  5.1243589623646529e-05  4.7586827068134982e-07  9.9587037969965862e-07  1.9373480324653159e-10  5.0530626030477253e-05  1.7600974562356460e-06  1.0951405393906161e-06  3.5810451583813782e-08  2.7413669070563881e-10  4.3130897719497666e-08  4.5531720524704371e-03  1.0935456313416680e-03  2.9896864342039050e-09  7.6154417831462601e-08  4.0188553956352363e-05  1.2599194083288157e-10  3.6514209828233454e-07  3.0306264712662821e-04  2.1389258895115705e-04  7.6070884668538074e-05  4.2287304580544817e-05  3.9994240705793456e-05  2.3208779040610001e-07  4.6612601894296801e-05  3.4669662500663598e-12  3.4957322949830892e-12  9.4748103350803274e-04  6.4272388873809521e-05  2.3290850295895457e-05  3.1812796388528657e-05  2.3515323620664467e-05  2.7723152756367545e-10  3.9019881470665648e-10  4.7353694241186156e-06  1.5465127440748534e-12  5.9464621102731791e-03  4.0418214175881335e-04  5.3534523500473128e-04  7.9023568022243060e-04  7.6142098174918347e-12  7.7145487887853260e-10  4.7887855219995776e-04  8.9328779957612882e-10  2.4609501806432021e-08  1.7273119896182734e-09  9.3786449194340636e-11  2.8727921688905690e-13  4.0931282032943411e-03  1.1714234044206226e-03  8.1067375848316858e-07  2.5148771343376309e-03  1.7119457220869969e-04  5.9082963286961637e-07  1.6172942999348322e-07  2.2126168232703062e-03  6.5142177122496832e-11  4.3158193233429213e-04  1.0592060457752364e-07  5.9231592718533323e-04  3.3890642750155887e-03  4.4635912195340926e-03  3.0321866591905785e-03  6.1505498501800556e-08  4.6143446861942971e-04  1.4842144645620098e-06  4.8772372384195319e-03  3.4417353367207707e-05  1.4377620143441456e-03  3.6087343989832563e-03  1.3582779724903105e-03  1.4414692003635900e-10  2.9041404312681268e-04  6.1968106501615441e-11  1.3445675065873279e-04  1.8467900578749920e-03  4.4013935873924215e-07  3.8153477594890534e-09  7.5381727547922694e-04  4.6699725518136862e-05  6.2741566275439844e-05  1.2448728169075738e-08  4.0968158791468961e-03  6.7533460784892303e-05  6.5658204847690731e-05  1.6237359670756536e-04  1.1961608774729802e-07  3.7856638856592557e-06  3.9301262146065736e-09  1.4047019588295727e-09  3.2433584360435994e-12  1.6072542691000969e-06  1.1276867475866217e-11  4.4086388956426307e-04  5.0529548566616495e-04  1.3923147536708050e-06  4.9297375642668895e-10  1.5913529761912193e-05  1.9951547256338237e-05  3.5621930261403225e-05  2.6880796630400104e-07  4.8997049079012736e-03  8.1604321820779921e-06  1.6151979776329013e-04  6.8145148818444754e-11  5.4610124438670392e-04  3.5309793697962992e-06  2.0375549779997698e-05  1.0238861112204145e-04  3.0221176217991474e-10  8.4213835995964676e-05  3.9026664705411592e-05  8.4089969365204847e-05  4.7863833050390010e-03  1.9732927559327441e-12  3.3445185832825877e-04  1.8018948035025234e-09  9.1464248908085106e-05  2.5224815125165514e-07  4.9863661621443769e-10  1.7229548040959732e-13  1.7859826671223121e-04  4.0065383201768291e-03  4.6074926437359316e-04  3.2105787489107335e-04  1.8255828578376421e-03  9.5934331779295352e-08  1.9219205188236550e-03  2.9814516968187009e-13  4.1112151662209750e-04  4.9950177492084618e-12  1.1070401482267446e-03  7.8874113612537585e-06  1.3434967790922948e-05  4.2738245685165022e-10  3.9631493578622394e-04  1.2344448160896805e-05  4.5763659510429545e-06  2.1067176834089962e-06  2.3033257199461793e-06  4.6066210432835378e-06  3.6642696620774891e-10  2.7244248853224486e-03  3.4683061813566628e-03  1.3051671437116724e-04  1.5335432195226434e-03  1.3045377220169243e-03  9.3415005920759897e-06  6.1658042095955876e-06  1.7461222638359870e-04  4.6319654170123896e-04  9.0903795652440524e-10  4.2105266345638038e-04  7.6079836109214775e-04  4.4120314527516769e-04  1.7636443918359691e-04  1.9541430745337912e-13  1.7880765728214873e-05  4.0611271032295248e-05  3.8770210503551889e-05  1.2248207352954536e-04  7.5642346595234037e-06  7.0672930258458186e-05  2.1916496627946071e-08  6.4123201425529219e-04  8.6072254627288030e-05  3.9587791087170327e-03  2.6250954984814124e-03  4.9236705592263710e-12  7.1569583509813618e-04  1.0201260262313599e-03  4.2541515783317057e-03  4.0465663791715255e-06  7.6119592601674209e-08  4.3612441847434716e-03  2.5343520703773690e-03  2.9162864880718500e-03  4.3637697753472933e-03  5.2530842282969418e-05  1.3968874889083438e-09  4.3194425655320850e-13  8.5999879805428115e-13  1.9097163000100549e-13  1.9769529990019770e-05  8.7042382065905299e-10  2.2307663373796854e-11  7.4896137311536068e-04  4.1071046818514628e-05  1.0749885492210923e-08  4.6029346290334197e-09  5.1205545344324262e-07  1.7151303115399803e-03  2.5434889982295649e-04  3.1143807716463247e-04  4.5553720320641406e-03  3.1773263904902443e-05  2.8334389818520454e-05  1.5538027409822119e-04  9.6575208620372079e-05  4.7595378378867268e-04  1.6177424986654502e-05  3.0278591978426447e-05  6.9421466154599972e-05  3.4170640882193273e-03  5.2296922072192949e-03  1.2283914838716228e-03  5.0346530908381647e-06  4.9290053843503755e-03  4.1724192215647672e-04  7.9747710413552496e-06  2.3511206396867675e-03  1.9732266870990230e-13  7.8875357521734446e-05  4.3056350789066864e-05  2.0912842495718037e-07  7.9739890976511353e-08  4.9315121724780617e-05  3.1608536094594509e-10  1.2147518784183822e-05  5.4409358094849628e-04  7.7023353166801977e-06  9.9272628245189386e-06  5.2263155674732911e-03  6.5609194554314939e-03  2.0080867136056673e-10  3.1527626385855791e-12  2.1454517395577490e-04  1.2442219908214405e-06  4.6809329647522466e-07  5.1000088296025268e-07  8.2879498260689493e-06  2.0812287198386680e-04  3.0950036283770939e-07  3.8423190863723356e-09  2.5578491132141115e-05  2.0401480474775665e-09  1.9904358210982229e-10  8.8667102810730714e-11  2.4361220526178555e-05  3.0260472350824848e-03  7.4250029066610700e-09  1.7349601295686423e-03  1.5689435257334484e-08  1.9002914172515704e-05  3.4145411081857578e-06  1.5639858124547508e-03  4.4225303838466594e-03  9.7658444615624754e-10  4.8634312069167074e-03  2.6350125270209147e-05  1.6432376216637590e-03  2.0942349820091098e-04  5.3835382635048614e-08  1.7155592382210