<?xml version="1.0"?>
<VTKFile type="UnstructuredGrid"  version="0.1"  >
<UnstructuredGrid>
<Piece  NumberOfPoints="2446" NumberOfCells="4585">
<Points>
<DataArray  type="Float64"  NumberOfComponents="3"  format="ascii">0 0.41 0  0 0 0  2.2 0 0  2.2 0.41 0  0.2404508497187474 0.2293892626146237 0  0.25 0.2 0  0.2404508497187474 0.1706107373853764 0  0.2154508497187474 0.1524471741852423 0  0.1845491502812526 0.1524471741852423 0  0.1595491502812526 0.1706107373853764 0  0.15 0.2 0  0.1595491502812526 0.2293892626146237 0  0.1845491502812527 0.2475528258147577 0  0.2154508497187474 0.2475528258147577 0  1.1 0 0  1.1 0.41 0  0 0.205 0  0.55 0 0  0.55 0.41 0  0.275 0 0  0.275 0.41 0  1.65 0.41 0  1.65 0 0  0.8250000000000001 0.41 0  0.8250000000000001 0 0  1.375 0 0  1.375 0.41 0  1.925 0 0  1.925 0.41 0  1.5125 0.205 0  1.7875 0.205 0  0.6875 0.205 0  0.9625000000000001 0.205 0  1.2375 0.205 0  2.2 0.205 0  0.4687002074688797 0.2068568464730291 0  1.99375 0.2152743902439024 0  2.0625 0 0  2.0625 0.41 0  2.2 0.3075 0  0.4125 0 0  0.4125 0.41 0  1.7875 0.41 0  1.375 0.1486128048780488 0  1.5125 0 0  1.7875 0 0  1.5125 0.41 0  0.8250000000000001 0.2613871951219511 0  0.9625000000000001 0.41 0  0.9625000000000001 0 0  0.6875 0.41 0  0.6875 0 0  0.1375 0 0  0.1375 0.41 0  1.2375 0 0  1.1 0.1486128048780487 0  1.2375 0.41 0  1.65 0.1486128048780487 0  1.126715909090909 0.2793064024390244 0  1.676715909090909 0.2793064024390244 0  0.8517159090909092 0.1306935975609756 0  1.348284090909091 0.2793064024390244 0  0.34375 0.3032389320646208 0  1.894702181800738 0.1282910975492754 0  2.092797818199262 0.1282910975492754 0  1.85625 0.3075 0  0.61875 0.3075 0  0.61875 0.1025 0  0.3648540804333487 0.1240075933101478 0  0 0.3075 0  0 0.1025 0  2.099172119769978 0.25625 0  0.48125 0.09238439620688085 0  0.5781001037344399 0.2059284232365146 0  0.48125 0.3196743479159776 0  0.7265881057911006 0.3055240343720796 0  1.99375 0.08395950269330846 0  1.459960956013612 0.3075 0  1.569025960719943 0.2986889805672169 0  0.75625 0.08213100772579164 0  1.03125 0.3278689922742084 0  0.923871252904788 0.3078247185783941 0  1.959375 0.3126371951219512 0  1.749222215368287 0.1025 0  1.275777784631713 0.1025 0  2.2 0.1025 0  1.225938124459196 0.3075 0  1.550777784631713 0.1025 0  1.000777784631713 0.1025 0  1.44375 0.07430640243902442 0  1.16875 0.07430640243902437 0  1.899250267340833 0.2229966846119207 0  0.1020898364287272 0.3140258291809757 0  1.766482954545455 0.2934032012195123 0  0.3405058858996321 0.2119987970531874 0  0.7710785630958338 0.1710968191298857 0  1.046078563095834 0.2389031808701144 0  0.2 0.3400647632937836 0  1.421109702350723 0.2261157654379721 0  0.2800464974185557 0.08982544815605742 0  0.098916018031319 0.09171660955420841 0  2.13125 0 0  2.118919042110979 0.3422084711244843 0  1.30625 0.41 0  0.89375 0 0  1.597888256393107 0.2173787389261347 0  0.20625 0 0  1.829299675393195 0.07400700849299596 0  1.71875 0.41 0  1.16875 0.41 0  2.038220665644273 0.332420740103091 0  0.34375 0 0  0.417496017710808 0.2696595573092803 0  0.2 0.07687845740457822 0  0.9295982307099278 0.1343158415898188 0  0.07390688010811153 0.1697064032433452 0  0.5238366813727013 0.2578302467013575 0  0.05452951551825875 0.25625 0  0.5229630068078351 0.1548816096928243 0  1.452769549894695 0.1548122580621249 0  1.369219062229598 0.07430640243902442 0  1.30625 0 0  0.8504409521244898 0.3356935975609756 0  0.8821881244591965 0.205 0  1.720943423819132 0.1714577452753128 0  1.157188124459196 0.205 0  1.094219062229598 0.07430640243902437 0  1.03125 0 0  1.304056576180868 0.1714577452753128 0  1.67579304192913 0.07430640243902437 0  0.2751941921308361 0.3346083473122598 0  1.209670467133757 0.1362100266964769 0  1.025335513626278 0.1700681449722324 0  0.7562500000000001 0.41 0  1.58125 0 0  0.7567170593862014 0.2409196493502535 0  0.6926714215682891 0.1272249611432207 0  0.4139715849905988 0.3397932387114203 0  0.9840787304190477 0.2717749043358119 0  0.06875000000000001 0.41 0  0 0.35875 0  0.9281250000000001 0.06276726142697993 0  0.5507396469029935 0.3219409231578227 0  0.5504468037989405 0.09136885600634273 0  1.58125 0.41 0  1.631724228912893 0.3381867502687533 0  1.825608881788174 0.14499488549201 0  1.85625 0 0  1.44375 0 0  1.44375 0.41 0  1.85625 0.41 0  2.13125 0.41 0  0.7562500000000001 0 0  0.89375 0.41 0  0.4812500000000001 0 0  0.34375 0.41 0  0.4812500000000001 0.41 0  0.20625 0.41 0  0.06875000000000001 0 0  1.16875 0 0  0.61875 0 0  0.61875 0.41 0  1.03125 0.41 0  1.71875 0 0  1.99375 0 0  1.99375 0.41 0  1.340625 0.3489494290853124 0  1.134375 0.3489494290853123 0  1.700180620188976 0.3438659752031281 0  2.135782184673599 0.07126652247502523 0  1.668441847249787 0.2129203728327609 0  1.295782514339747 0.2378437748815763 0  0.8233075729931248 0.06842334294821524 0  1.409375 0.3520314716057996 0  0.403505597322782 0.182067236678212 0  0.378125 0.05794951541303489 0  0.3043468223249023 0.1518321115979534 0  2.129248544730567 0.1906135162504124 0  2.060771381434487 0.1989445750470348 0  2.013252586573865 0.1496169464686054 0  1.942766402200229 0.1734448904596831 0  1.895522487186454 0.06076163953489683 0  2.069553871656643 0.06605731020975725 0  1.274680914880868 0.3520219391081363 0  1.614713220494657 0.09473434380863296 0  0.7899021319497519 0.3149123934144827 0  0.69518737419149 0.0634051089053758 0  0.2971740475496061 0.2592172353407536 0  1.72990325744076 0.2380068107952482 0  1.356580098625191 0.2120393231351682 0  2.034370752044885 0.2668681600792073 0  1.51768709249349 0.3426260931494756 0  1.561883724969884 0.1650446847858835 0  1.197344062229598 0.2523725417393646 0  1.804085235518364 0.3468178408964637 0  1.817887819205233 0.2589243285818559 0  1.905897727272727 0.3485060975609756 0  0.6719798073392919 0.2688965171178177 0  0 0.05125 0  0.653125 0.35875 0  0.6396896119294488 0.1627615407790282 0  0.4274150154087412 0.1242548552168279 0  1.192836486056382 0.3562350748565544 0  0.8279124365364005 0.183856489168822 0  1.097485222388854 0.2083571153401724 0  1.28257088594801 0.2944411014911587 0  1.474860187679412 0.2504218616229368 0  1.406767003493824 0.2829282258560709 0  0.446875 0.04619219810344041 0  0.515625 0.04585361801037557 0  0.592043440706648 0.05125 0  1.845656689180403 0.1998310418452388 0  2.144958525570388 0.2909790873294231 0  0.6171090763650112 0.2492366900333857 0  2.2 0.15375 0  0.5145586920831158 0.3648371739579888 0  1.57794966442982 0.3540357145964566 0  0.721875 0.3633107922168974 0  0.0496154796471391 0.333125 0  0.5843750000000001 0.3662560860076676 0  0.5810878747760798 0.1474002776121195 0  1.508991196088596 0.1421783375065625 0  0.8840670607017558 0.2640994375393898 0  0.09776612425612034 0.2204896805326566 0  1.50436820029908 0.06143401634903343 0  1.223857000523521 0.0823554862453532 0  1.153316824384777 0.1289850171317837 0  2.148922302309752 0.1258841779285271 0  0.309375 0.04312325590431198 0  1.621993280276081 0.2841214267927899 0  1.550118654119087 0.2461998729100966 0  1.327182649291491 0.1216967252533594 0  1.051977450479407 0.1221382572915816 0  1.753125 0.04556020050186112 0  1.271875 0.04556020050186116 0  0.9816084133102366 0.05126138213476004 0  1.039051841454368 0.0572224914831029 0  0.9719230514536006 0.3480477870845102 0  1.94956388244759 0.1180512551534177 0  1.949997712993411 0.04965831614304109 0  1.771961817615021 0.1530278789497521 0  1.909246823951428 0.2812757146784527 0  0.2459536687882397 0.04668633953831142 0  1.948575539857022 0.2445328248721197 0  1.697271520964565 0.1233917627620729 0  0.7964897648514618 0.1211426571931604 0  1.065625 0.3689344961371042 0  1.085849084308977 0.3170853572226867 0  0.4702981435440001 0.260434880697798 0  1.577403511714593 0.05463601888079143 0  0.05622663515370135 0.05493816910862376 0  0.3267207591099919 0.3566194660323104 0  0.9003051618565143 0.3564049499960621 0  1.751571320346033 0.3651102912045228 0  0.1583785085108421 0.2994699345738728 0  0.1455283439499995 0.3542795598723423 0  2.2 0.35875 0  0.2347662494194072 0.298325008655211 0  0.1527284455616188 0.1065771775690181 0  0.1382139529076665 0.05427454456341477 0  0.8749341636311069 0.05110114999892954 0  0.643661668713109 0.05693499781019222 0  1.466879772203159 0.3611261772912453 0  1.990280163552011 0.3564754268533217 0  1.17471064520912 0.2990917256188288 0  0.5202693090594349 0.206382495511728 0  0 0.25625 0  2.2 0.25625 0  2.2 0.05125 0  0 0.15375 0  1.853978576207987 0.35875 0  0.9787513713939683 0.1487523696999336 0  0.240625 0.3722153812029779 0  1.515638456102889 0.2882700110184686 0  0.09048297387599738 0.3637717362208066 0  2.150453692751374 0.2387066338105111 0  1.323782677156475 0.04897634338873398 0  0.8074131292871642 0.3624701995505916 0  1.409375 0.03715320121951221 0  1.406484531114799 0.1087852750766809 0  1.134375 0.03715320121951218 0  1.627401732573545 0.04552157221025036 0  0.1170173172005315 0.1427610859166811 0  2.045405893604797 0.1105340662939892 0  1.255408269734577 0.1577307500159216 0  2.028125 0.03707597992059326 0  0.4743610090857199 0.1421513964721819 0  0.9354010469015898 0.250631300585664 0  0.04420832937638274 0.128125 0  0.8922386349349938 0.0992956419364831 0  0.1197849154434487 0.2663398672460083 0  1.248258025468107 0.2565907092181813 0  0.3746885856929528 0.370723531618974 0  1.203125 0.0366132337404304 0  0.5724622277005015 0.2751253816079333 0  0.3365425205162783 0.08395777655057959 0  2.072662025974815 0.2975086504196739 0  0.4581080832182547 0.3648371739579888 0  0.3874522734668214 0.2295447548840689 0  0.7827853612484443 0.04106550386289586 0  1.887722846421017 0.1760882698830035 0  1.472640588990488 0.1118278026240017 0  1.865937103925594 0.2604137786483804 0  1.463913572748262 0.2030442564990043 0  1.376426316059077 0.3186741374914345 0  0.6641993820150034 0.3141688596240831 0  0.2943117490824315 0.2130987422685822 0  0.3478153998082709 0.1666571081082676 0  0.3427990510599805 0.2575950027870776 0  0.7997118993855807 0.2216171933356366 0  
[...]
<PointData  Scalars="f_10-0"> 
<DataArray  type="Float64"  Name="f_10-0"  format="ascii">1.1610691649918660e-04  1.0382526295018154e-03  2.3698545663685864e-03  9.5137365027805649e-04  8.8102845145064256e-04  1.7114942973999597e-03  2.3445575048601651e-03  2.3326034510962189e-03  1.6297566356966052e-03  8.3325404628071034e-04  4.7495288203513964e-04  3.7474373029353417e-04  3.3161924576144723e-04  3.7724752841456638e-04  3.9727010907897277e-03  4.4406760390109008e-04  3.5869111260883638e-04  4.9601570295081969e-03  1.5202426443327119e-04  5.3874220299171939e-03  1.3900047977803687e-04  8.0240926738564674e-04  3.2437454079311460e-03  2.6115098518974069e-04  4.4385697702948894e-03  3.5794083865645591e-03  6.3281600043811343e-04  2.8919016949144403e-03  9.2955756382978442e-04  2.0167579530128783e-03  1.9740901348360238e-03  1.9701890153701689e-03  2.0390830834883032e-03  2.0426119800396516e-03  1.7954857953200749e-03  1.7644733933148866e-03  1.8385526778952257e-03  2.6484958673934017e-03  9.6047366653335845e-04  1.2050899177760476e-03  5.2150108188637901e-03  1.4323245348978105e-04  8.7310578909224055e-04  2.7055215310755271e-03  3.4059558738598569e-03  3.0797705242634056e-03  7.2097530554817335e-04  1.1134928214350771e-03  3.4888632368453628e-04  4.1972910374651782e-03  1.9075377834025170e-04  4.6979481077442514e-03  3.9597148642711221e-03  1.2463832022659356e-04  3.7654295831365202e-03  2.8718743249700747e-03  5.4092845000817361e-04  2.5503253257985405e-03  1.1020457993079116e-03  1.3215073752842069e-03  3.3416343138997504e-03  1.2077254239862207e-03  2.3475894684015362e-04  2.5527393923222693e-03  2.3575378178435800e-03  1.1836950659023875e-03  4.1992721851829049e-04  4.1222057889047222e-03  4.0809321415146314e-03  1.7517918678430325e-04  6.5570278905283086e-04  1.5165099775566019e-03  4.5383988295866692e-03  1.8912586843034516e-03  2.3717079395650577e-04  5.4427919120367090e-04  2.6857259580322936e-03  1.0276254444502267e-03  1.1374349882048961e-03  4.1650846364115184e-03  6.2590697346243498e-04  6.9691746144746761e-04  1.1832869204553523e-03  2.8428968850815277e-03  3.2689008381736372e-03  2.3158845651830907e-03  9.0353809502528035e-04  3.0122593258761301e-03  3.5721521101178145e-03  3.3109936929121312e-03  3.6340299511384176e-03  1.7989861336620721e-03  1.7787282192489824e-04  1.2446739889432653e-03  1.3354829622209377e-03  2.6646222299312201e-03  1.5507854205168714e-03  1.8327048587585263e-04  1.7836257429043316e-03  4.6549002342501098e-03  5.1535561688762152e-03  2.4954213117599814e-03  1.0764714383859476e-03  5.8814191742772453e-04  4.3161033179238330e-03  1.8777987825141927e-03  5.1557812888590442e-03  2.9136689568020650e-03  8.4001636326244764e-04  4.9263378285745597e-04  1.1079714949969060e-03  5.3344698032828279e-03  4.2809332123378051e-04  5.7001712415364631e-03  3.2104900970920595e-03  4.7663604627478165e-04  7.8717811814244172e-04  2.5293839707833345e-04  3.2007534927545717e-03  2.5939059683032237e-03  3.3926425986974553e-03  3.6730808520913419e-03  4.4636463880384260e-04  2.0270359473465393e-03  2.3037845154935117e-03  2.0455806823708412e-03  3.7298128789689869e-03  4.0803767821971084e-03  2.4651095294376418e-03  3.0702040988191555e-03  1.9380559184570414e-04  2.9607743896705964e-03  2.5898679685707636e-03  2.2149943482479621e-04  3.3231679921554118e-03  1.3553664943575607e-03  3.5804936437608820e-03  1.7970590532918198e-04  1.0983560820925771e-03  1.1752889614541523e-04  1.3081022831919737e-04  4.0617580489180636e-03  2.7840169868447118e-04  4.4195598270562681e-03  7.6247085505064781e-04  9.3680539594218873e-04  2.4795733408407156e-03  2.9900770549590137e-03  3.4928296200232578e-03  6.7850916208737899e-04  9.0573060294552217e-04  9.5943805320832865e-04  4.5677059600591858e-03  3.0144080627944088e-04  5.0895866981800998e-03  1.4202350989981309e-04  1.4484891626197709e-04  1.3220488873502036e-04  1.8072096933938499e-03  3.8652463036074839e-03  4.8287475224666363e-03  1.6756017712151342e-04  3.9415106759382857e-04  3.1634126314803207e-03  2.7785459654941893e-03  9.5093521520541618e-04  7.2087409414614242e-04  5.8651326360911282e-04  9.4488848528371866e-04  2.4958203610435290e-03  1.9170675802985763e-03  1.6326256211326644e-03  4.1903320796310220e-03  7.5419197333881621e-04  2.5116560351578308e-03  5.0941440284411723e-03  3.1572534038514116e-03  1.9407594358188686e-03  1.9312779410451165e-03  2.3123512831961651e-03  2.1870234178534747e-03  2.8839417652242942e-03  2.6258018799217428e-03  6.6818728416342824e-04  3.0108082474317988e-03  5.2841606278621132e-04  4.4599694006671933e-03  4.3252649472371590e-04  1.6789997377343569e-03  1.9475770352416174e-03  1.4583441183121447e-03  8.5545957624842044e-04  2.4328778102754994e-03  1.4345455428500474e-03  9.8118060099176602e-04  1.5077320031007474e-03  1.0164459046945822e-03  8.6016835957688966e-04  8.6627754952792158e-04  2.2395296209671138e-04  2.9043154009704068e-03  4.0719830784720201e-03  5.9594583316560125e-04  2.4047897156066105e-03  1.9959229050844247e-03  1.0403769909633977e-03  1.5289320943934078e-03  1.1990638838137245e-03  5.0594637038672893e-03  4.9244996199520764e-03  4.7513607352097087e-03  2.0068473583320385e-03  1.2993449244409700e-03  1.0722754727767164e-03  2.0956283298421254e-03  1.6600583482912021e-04  8.4360710619550152e-04  2.5057312723079255e-04  1.5074977858428831e-04  1.8280742206241247e-04  3.3079243549850937e-03  2.6942835776638174e-03  1.1278513112840131e-03  3.3161771942897769e-04  3.3086646519725829e-03  3.5037070264972289e-03  3.0939760961340482e-03  2.2933732546658826e-03  5.3364201618417480e-03  1.2668184437613684e-03  1.5843810184753473e-03  3.0329913692038867e-03  3.2721410224519978e-03  3.0924871943641269e-03  3.6584777110718709e-03  4.0552362008336503e-03  3.9289169065395823e-03  4.7479682159505288e-04  2.5698419139209895e-03  2.8417502803183880e-03  2.4452679169400761e-03  1.3580746539802189e-03  5.5255447921848709e-03  1.6232702444134517e-03  2.7349082177107490e-03  3.5557859877494461e-03  4.6581649397463396e-04  7.4128610972970521e-04  6.4245944216135761e-04  3.2544318212070979e-03  1.4677550790357398e-03  1.6506597713091735e-04  3.8703809279511282e-04  9.0108195227985553e-04  2.2699720250238031e-04  1.5186219926141323e-04  1.0192974739113533e-03  2.5771230122929374e-04  5.6657280116627802e-03  6.1378949979677602e-03  4.2333834597463255e-03  4.6140036357133008e-03  7.5605356859559229e-04  1.0170559153380482e-03  9.4081968587550490e-04  1.8306246602247148e-03  2.4943617986210347e-04  1.4791462206756112e-03  2.4016235530003312e-03  5.0620170745506910e-04  9.6566896215251243e-04  2.9489013209804357e-03  1.5066904272148030e-04  1.1975743750868237e-03  1.3219896603209477e-04  1.6093417489783106e-03  3.5782345752757702e-03  3.0494028371150542e-04  3.5039508030770702e-03  3.0899748370019284e-03  3.8802698315517875e-03  3.2289999901024212e-03  2.8769994344049104e-03  2.5072101624712940e-03  2.6615678824064059e-03  2.7317587533636127e-03  3.5935931156108772e-03  1.3387753511244066e-03  7.5342406048615053e-04  3.7506090240494398e-03  2.5771514087137505e-04  1.4042220867338730e-03  1.5378280163108704e-04  3.7790066333981435e-03  6.4493247879106612e-04  4.8100388505091475e-03  1.2735280665338547e-03  1.5932213529010428e-04  9.6549575884073745e-04  4.4474706429189128e-03  2.1935729035449719e-03  3.0054245797860963e-03  1.5008902699838835e-03  2.0447692102109030e-03  9.0718333781177995e-04  4.1790328365666956e-04  1.2973800999797360e-03  3.0742014366625624e-03  4.0986077340679180e-04  1.7093323390979158e-03  1.3054906170135621e-03  1.5920977567023199e-03  2.5870084066476604e-03  2.7435972385101842e-03  3.5571115445488903e-03  1.6699937030468283e-03  1.0157921674894196e-03  1.3799532495427870e-03  2.2221765568876273e-03  3.1474044270716475e-03  9.5665566907615011e-04  2.6480433867700939e-03  1.8572074700329035e-03  1.2561752214775672e-03  1.1961897100662522e-03  3.4778579947444105e-04  1.5096868454348672e-03  1.1085577065531062e-03  9.6181022226572667e-04  1.0142941743068808e-03  3.2717028604164569e-03  4.5350960008716827e-03  7.8279909977777484e-04  2.7365737768171557e-03  1.2487648202421592e-03  4.7344595981923358e-03  1.5507145554718898e-03  2.3715482617347738e-03  3.4493518502545020e-03  2.1657943003289097e-03  7.4278516704993306e-04  2.8004091738668019e-04  3.2038086209907482e-03  3.1446665695479422e-03  3.7234126966545456e-04  4.2899344017598184e-04  2.4660723631113289e-03  9.8716696725394213e-04  1.1609315968742497e-04  4.1633771278348055e-03  2.6604167106482525e-04  2.4463789150368748e-03  2.7985988037821687e-03  1.6374278861279320e-03  3.0446578712142618e-03  2.7822505182463152e-03  3.3650829433358696e-03  9.7459314327501929e-04  1.4208426196276967e-03  3.6239527843814441e-03  8.8892154997287386e-04  3.9717761397944674e-03  1.0594051895249337e-03  8.5026804414400578e-04  3.7851405923111574e-03  4.7975087197352703e-03  1.2883425594444075e-04  2.2549365408116293e-03  3.2642195705773186e-04  2.0088828863656693e-03  5.8672655177599369e-04  2.1110424648290212e-03  3.4273296969519174e-03  5.5537928574257364e-03  2.4662577215191911e-03  2.8056288705699197e-03  1.4803083892031307e-03  9.2689142148501399e-04  2.3716985421828068e-04  2.5056140867413674e-04  2.0532036770754842e-03  3.5173397813793657e-03  1.5120089384900478e-03  1.6050090400858239e-03  2.5784968770185841e-03  5.3244973229453648e-04  2.0709533672306235e-03  9.2553687536256783e-04  2.7908510451953809e-03  7.6602866320485202e-04  9.1845158436380477e-04  2.9748241212238778e-03  2.9425147898859555e-03  2.7673315997701472e-03  3.0635164430789811e-03  2.9677369245604038e-03  3.2055816733481692e-03  2.8837338111031186e-03  1.1903232820385833e-03  5.7182172675459598e-04  2.4608256845824901e-04  1.2475648279476587e-04  9.9223019796527371e-04  2.6975065432968933e-03  2.8198308158052139e-03  7.0994339961935984e-04  1.9405676623834902e-04  4.8894339778559961e-03  2.4662026877699661e-04  2.9543163393325020e-03  4.0555706336744407e-03  3.7168846942065530e-04  2.8979055153223894e-04  2.3574315804343830e-03  4.5764644702227236e-04  1.2889675859327999e-03  3.8926915901279203e-03  2.6635664313456402e-03  1.3049017235185522e-03  1.5258303817972064e-04  1.4392665284030225e-04  1.5344788503220070e-03  1.4073154903064487e-04  2.5684107816448705e-03  2.5678742505524819e-03  3.9994427374272406e-03  2.6460043397205438e-03  4.0089381410585512e-03  4.2499540499648275e-04  1.3196809782071309e-03  3.1921431573523782e-04  2.0874099578112508e-04  3.3664546589902114e-03  2.0116787067901232e-03  2.0801632258025189e-03  2.6109820412169122e-03  2.9049376489026545e-03  3.0956571160544390e-03  3.5682451101988980e-03  3.3592489278043386e-03  2.4364622243168736e-03  2.6241883616436252e-03  2.3481302120135022e-03  2.3462279940623474e-03  1.8248855745414921e-04  3.3506936030439777e-03  3.0974497923288813e-03  2.3078292839705697e-03  1.9462480381588610e-04  1.0398493589975962e-03  1.0474079214579891e-03  3.9127403191642848e-04  3.5484939824085840e-03  4.0107791102074301e-04  7.8102544621600465e-04  1.1658866157371393e-03  8.1717770759712205e-04  2.2605061742555573e-03  7.5593399026458699e-04  3.5827727158734362e-03  3.0358125557438951e-03  3.6429379436663867e-04  1.6427802576405681e-03  1.7123568354257626e-03  3.3753241629219878e-03  2.3695145914107377e-03  1.3038244119387514e-03  1.7192072631024246e-03  1.8229063095185291e-03  1.0400390903616186e-03  3.2406334173880392e-03  2.0225438830074791e-03  3.1088158358037118e-03  2.3963596164638108e-03  4.6825648701006922e-03  3.3558039601515582e-03  5.4768117891255421e-04  4.1818580079915476e-03  4.2537137568275391e-03  4.3773802686975149e-03  4.3660542849836195e-03  2.3915900500804041e-03  2.4314307194943201e-03  4.0842418905358722e-03  1.9065898546315560e-03  9.9129937920457308e-04  8.5416434338492458e-04  1.8852229819120705e-03  1.8590006834094390e-03  2.5734721578480639e-03  2.2631551229520042e-03  1.1675149801998006e-03  5.2261379033638842e-03  1.5159618063567920e-04  3.7083774834545161e-03  2.4019529128552681e-03  8.0361584286570489e-04  2.9292805932659921e-03  5.1928574706660159e-04  4.6866752668202468e-04  6.2657917585004789e-04  6.0810337900204711e-04  6.7429280697291541e-04  8.0900998395900387e-04  2.2593092078393062e-03  2.2144476273243435e-03  5.1546506770024363e-04  2.4112832313708747e-04  1.8396558035261841e-04  1.9438495869955972e-03  3.6262553387706943e-03  5.1655985039527740e-03  5.2789020620279160e-03  2.2917164419974085e-04  4.2997812391144146e-04  2.7703015793405553e-04  2.4898058395119739e-04  2.2954896032570970e-03  3.7355554377388636e-03  1.5149494626247257e-03  4.6071182344453792e-03  3.7717206957372318e-03  4.0654555508419033e-03  9.3392075028861507e-04  8.2005309778657187e-04  2.1136615850410058e-03  2.0734964697812380e-03  1.3881848668455279e-03  5.6283372619436256e-04  4.7828062361178345e-04  3.8364540199043945e-03  5.0432454995579055e-03  3.6251686679524948e-03  4.0243343375915919e-03  2.4148817181808072e-03  2.5734900718194331e-03  3.9174286415239587e-03  3.5340607779936455e-03  7.0007954284189919e-04  8.5709050181946849e-04  4.1936130240761543e-04  3.1210655736920077e-03  2.0584317880624996e-04  6.5489466387486041e-04  4.6318302050484157e-03  9.5585571806495150e-04  4.2534289446445883e-03  1.4273488275833913e-04  5.1547390032862274e-03  1.4353788199845241e-04  2.8777201900043177e-03  1.3602640149547611e-04  5.3275580210374266e-03  1.2043787483854542e-04  4.7646730860790342e-03  4.5030291844110051e-03  5.3791946995901431e-03  1.5796975843353778e-04  1.4721923547076889e-04  4.8966175719428375e-03  5.0277155508960704e-03  1.7645763616252718e-04  4.1350606291344341e-03  3.8160971856425197e-03  3.2835666681458545e-03  2.8376978458695677e-03  3.7187340149328341e-03  2.7152290750426951e-03  9.3978388669489234e-04  8.6541975089514443e-04  2.5264753279131257e-03  4.1865024877955504e-03  2.9368908935733028e-03  2.6888133041034230e-03  4.6465343548778518e-03  1.5762391623362637e-03  1.2561152273116076e-03  6.9560970939682278e-04  1.0155235764654658e-03  9.8528010796935595e-04  2.9208482091304870e-03  2.9748911268383065e-04  8.3750812817255953e-04  6.8505519503323452e-04  1.5160613663140255e-03  1.1584318820847053e-03  1.9667589199976387e-03  4.9772073206399651e-03  1.3985485145767132e-03  2.7294494712722878e-03  1.5957652203694842e-03  2.0205482141474780e-03  1.1857667571980102e-03  7.2855325204014933e-04  5.7202430303588520e-04  1.0191851149678824e-03  3.8087376001041923e-04  2.9993707153979266e-04  2.4940187589112179e-04  3.2935121108806299e-03  1.8406583756540461e-04  2.6712923999593048e-03  2.5145295638949222e-03  3.6473689190448361e-03  2.0692662316443305e-04  2.3423272194833425e-03  2.6547140771989591e-04  7.2848278879499614e-04  1.9718351039176726e-03  2.3420868496550600e-03  1.2964691574245842e-04  1.1214917639228413e-03  6.4129815249169700e-03  6.1319939454935698e-04  7.8162021755158429e-04  1.4934279119363182e-03  1.2631087009684844e-03  8.9971987731017123e-04  1.9678367702406956e-03  1.0523314301146686e-03  1.1462971376703800e-03  1.7089923357822665e-03  2.7399455155412470e-03  1.4262373070902160e-03  4.5363978408241162e-03  2.5791165717809882e-03  2.7574823420186763e-03  3.6940251691443349e-03  5.0620054773914381e-04  3.0840972021047197e-03  3.0918574704194217e-03  2.5694382801204237e-03  9.3989743055511790e-04  6.7673081643777379e-04  7.6817002875083601e-04  8.5434984525805920e-04  3.7758879053100465e-03  4.9785366365804303e-03  3.4816251307098283e-03  7.9028258239558923e-04  3.1822428278751994e-03  2.2850908401633382e-03  5.3425989080885848e-03  3.2860133271208677e-03  3.3736524882351003e-03  4.6386742344235784e-03  1.6642337413536189e-03  9.2537418746356775e-04  4.8794442080878661e-04  1.0635795018591929e-03  2.4523842198745467e-03  3.2824424070611513e-03  3.3364562910785022e-03  1.7731817438627008e-03  3.7403778305102296e-03  7.8983673920223786e-04  3.3203483668887865e-04  1.4571362243714502e-03  4.7832849893884874e-03  1.7543122212059811e-03  1.1937815583990103e-03  1.6604793960387665e-03  2.2308361894808949e-03  3.2947316604597042e-03  1.3574310378078481e-03  1.3266832381689840e-03  1.8887921614601161e-03  3.4124682937742828e-03  9.5964505066380265e-04  9.8350360411332896e-04  1.0437848376746639e-03  2.6729845096316071e-03  2.7643406537904260e-03  8.1719957948481745e-04  2.1724443843024107e-04  1.9254077442334725e-04  8.6860714418903612e-04  5.4035142819240881e-03  1.5079530748963492e-04  3.4722739482529673e-04  2.5343001394681820e-03  7.7827622226590149e-04  6.3236985026324016e-04  1.9334838965444703e-04  3.5162393250801967e-03  9.0758713895942790e-04  3.2561739990214053e-04  2.8942606555350264e-04  2.9545092157908073e-04  5.2768161792637429e-03  2.5729579269859670e-03  5.6509458509414992e-04  3.0071624536614737e-03  1.6082925165905959e-03  2.7570313979938545e-03  1.3114736045831037e-03  1.6351676332093999e-03  1.0531060681370249e-03  4.5234329945586472e-03  2.4391606430965631e-03  2.1550143900975964e-03  2.7924725020390807e-03  1.3945025077864545e-03  2.3141297222681947e-03  2.4521913940752480e-03  1.3464199386872041e-03  1.4422820037804851e-03  3.8814766744248675e-03  1.5143896395544530e-04  1.8390111862909495e-04  1.5547670434352962e-03  8.2331945211439235e-04  1.8706797686234703e-03  1.7328706929775099e-03  1.2455896259993340e-03  1.7681157419337076e-03  3.4824929777999935e-03  1.0564298752553380e-03  4.4457827771561004e-03  4.3674154828882705e-03  5.2809757911642576e-04  2.0603914006308978e-03  2.0280251337405032e-03  1.2498936451955961e-03  1.4605566220782088e-03  3.6657063783871954e-04  3.8921855751287279e-03  1.9642133809774651e-03  9.6897732553017561e-04  1.0181188995946743e-03  6.5195726708379366e-04  3.5203589921558605e-04  2.2190821606772894e-03  2.0066818767079883e-04  1.0784997476687578e-03  1.3353145171674287e-03  3.2497620882859579e-04  5.8763070523839243e-04  2.2237466846722264e-04  3.0619085371802507e-03  1.0956814712024714e-03  6.9329487966569771e-04  4.5373297109660097e-03  2.9826208290102008e-03  9.6897400256536355e-04  4.0447562944169050e-03  1.5477573113240118e-03  4.7612752379399227e-03  2.6581502385610483e-03  1.0980714561151317e-03  4.8306981023160927e-03  3.2884976586233881e-03  3.7780843976122002e-03  4.8479461943502907e-03  2.9572011048295614e-04  8.7341870430904624e-04  1.1653068849705865e-03  1.4647968386826327e-03  1.2275585272057046e-03  1.5347444105084679e-04  1.7247252853324327e-03  1.1254044276935893e-03  2.8487785013303472e-03  3.6631332514734959e-03  3.1410225775964362e-03  3.0949223353366816e-03  2.8864379062537669e-03  2.1490142428034907e-03  3.0272102102215218e-03  3.3879564829450417e-03  5.0004776098194091e-03  2.2105841421695771e-03  6.7701146781095223e-04  7.5855731758519380e-04  5.8396136206167299e-04  7.9189409839594896e-04  1.5323748016410506e-04  1.7812505245972079e-04  3.5080666352654099e-03  3.9216517525629685e-03  5.6996810652112720e-03  1.7654703286831394e-03  1.3199837131493340e-04  5.4239986104761039e-03  3.7598079381455742e-03  1.4611250867503628e-04  2.9681098294428365e-03  1.9507545281750387e-03  3.8942261517554299e-04  3.0431423923263449e-04  9.6688489538807292e-04  8.6175773539307759e-04  2.9145738299605497e-04  2.6319709239234915e-03  1.7680028429634345e-04  7.8047121910199775e-04  1.4945327755690296e-04  1.6397396429765422e-04  5.6466195257580190e-03  7.0251720136705956e-03  2.4004890295406763e-03  1.6956590451353394e-03  3.9364694257898697e-04  1.7706711308504515e-03  1.3594813147685910e-03  1.7081112541591980e-03  8.7233923213761466e-04  3.5921189282246257e-03  2.4155061569917525e-03  2.0287360443424682e-03  1.5962739447132471e-04  9.2815517139023800e-04  2.8616200960044397e-03  2.8828574964022019e-03  1.8754623419793274e-04  3.4053750075603642e-03  9.3877497931314227e-04  2.3878178644281215e-03  2.6539654488239848e-03  5.2096056836936926e-04  1.0876791987713380e-03  2.8870947601458783e-03  4.9812152361913362e-03  2.4066714321851301e-03  5.3577103788080118e-03  8.7762608995953944e-04  1.9562894397924442e-03  4.0713692794496972e-04  1.7525202863165751e-03  3.2555265110367