<?xml version="1.0"?>
<VTKFile type="UnstructuredGrid"  version="0.1"  >
<UnstructuredGrid>
<Piece  NumberOfPoints="2446" NumberOfCells="4585">
<Points>
<DataArray  type="Float64"  NumberOfComponents="3"  format="ascii">0 0.41 0  0 0 0  2.2 0 0  2.2 0.41 0  0.2404508497187474 0.2293892626146237 0  0.25 0.2 0  0.2404508497187474 0.1706107373853764 0  0.2154508497187474 0.1524471741852423 0  0.1845491502812526 0.1524471741852423 0  0.1595491502812526 0.1706107373853764 0  0.15 0.2 0  0.1595491502812526 0.2293892626146237 0  0.1845491502812527 0.2475528258147577 0  0.2154508497187474 0.2475528258147577 0  1.1 0 0  1.1 0.41 0  0 0.205 0  0.55 0 0  0.55 0.41 0  0.275 0 0  0.275 0.41 0  1.65 0.41 0  1.65 0 0  0.8250000000000001 0.41 0  0.8250000000000001 0 0  1.375 0 0  1.375 0.41 0  1.925 0 0  1.925 0.41 0  1.5125 0.205 0  1.7875 0.205 0  0.6875 0.205 0  0.9625000000000001 0.205 0  1.2375 0.205 0  2.2 0.205 0  0.4687002074688797 0.2068568464730291 0  1.99375 0.2152743902439024 0  2.0625 0 0  2.0625 0.41 0  2.2 0.3075 0  0.4125 0 0  0.4125 0.41 0  1.7875 0.41 0  1.375 0.1486128048780488 0  1.5125 0 0  1.7875 0 0  1.5125 0.41 0  0.8250000000000001 0.2613871951219511 0  0.9625000000000001 0.41 0  0.9625000000000001 0 0  0.6875 0.41 0  0.6875 0 0  0.1375 0 0  0.1375 0.41 0  1.2375 0 0  1.1 0.1486128048780487 0  1.2375 0.41 0  1.65 0.1486128048780487 0  1.126715909090909 0.2793064024390244 0  1.676715909090909 0.2793064024390244 0  0.8517159090909092 0.1306935975609756 0  1.348284090909091 0.2793064024390244 0  0.34375 0.3032389320646208 0  1.894702181800738 0.1282910975492754 0  2.092797818199262 0.1282910975492754 0  1.85625 0.3075 0  0.61875 0.3075 0  0.61875 0.1025 0  0.3648540804333487 0.1240075933101478 0  0 0.3075 0  0 0.1025 0  2.099172119769978 0.25625 0  0.48125 0.09238439620688085 0  0.5781001037344399 0.2059284232365146 0  0.48125 0.3196743479159776 0  0.7265881057911006 0.3055240343720796 0  1.99375 0.08395950269330846 0  1.459960956013612 0.3075 0  1.569025960719943 0.2986889805672169 0  0.75625 0.08213100772579164 0  1.03125 0.3278689922742084 0  0.923871252904788 0.3078247185783941 0  1.959375 0.3126371951219512 0  1.749222215368287 0.1025 0  1.275777784631713 0.1025 0  2.2 0.1025 0  1.225938124459196 0.3075 0  1.550777784631713 0.1025 0  1.000777784631713 0.1025 0  1.44375 0.07430640243902442 0  1.16875 0.07430640243902437 0  1.899250267340833 0.2229966846119207 0  0.1020898364287272 0.3140258291809757 0  1.766482954545455 0.2934032012195123 0  0.3405058858996321 0.2119987970531874 0  0.7710785630958338 0.1710968191298857 0  1.046078563095834 0.2389031808701144 0  0.2 0.3400647632937836 0  1.421109702350723 0.2261157654379721 0  0.2800464974185557 0.08982544815605742 0  0.098916018031319 0.09171660955420841 0  2.13125 0 0  2.118919042110979 0.3422084711244843 0  1.30625 0.41 0  0.89375 0 0  1.597888256393107 0.2173787389261347 0  0.20625 0 0  1.829299675393195 0.07400700849299596 0  1.71875 0.41 0  1.16875 0.41 0  2.038220665644273 0.332420740103091 0  0.34375 0 0  0.417496017710808 0.2696595573092803 0  0.2 0.07687845740457822 0  0.9295982307099278 0.1343158415898188 0  0.07390688010811153 0.1697064032433452 0  0.5238366813727013 0.2578302467013575 0  0.05452951551825875 0.25625 0  0.5229630068078351 0.1548816096928243 0  1.452769549894695 0.1548122580621249 0  1.369219062229598 0.07430640243902442 0  1.30625 0 0  0.8504409521244898 0.3356935975609756 0  0.8821881244591965 0.205 0  1.720943423819132 0.1714577452753128 0  1.157188124459196 0.205 0  1.094219062229598 0.07430640243902437 0  1.03125 0 0  1.304056576180868 0.1714577452753128 0  1.67579304192913 0.07430640243902437 0  0.2751941921308361 0.3346083473122598 0  1.209670467133757 0.1362100266964769 0  1.025335513626278 0.1700681449722324 0  0.7562500000000001 0.41 0  1.58125 0 0  0.7567170593862014 0.2409196493502535 0  0.6926714215682891 0.1272249611432207 0  0.4139715849905988 0.3397932387114203 0  0.9840787304190477 0.2717749043358119 0  0.06875000000000001 0.41 0  0 0.35875 0  0.9281250000000001 0.06276726142697993 0  0.5507396469029935 0.3219409231578227 0  0.5504468037989405 0.09136885600634273 0  1.58125 0.41 0  1.631724228912893 0.3381867502687533 0  1.825608881788174 0.14499488549201 0  1.85625 0 0  1.44375 0 0  1.44375 0.41 0  1.85625 0.41 0  2.13125 0.41 0  0.7562500000000001 0 0  0.89375 0.41 0  0.4812500000000001 0 0  0.34375 0.41 0  0.4812500000000001 0.41 0  0.20625 0.41 0  0.06875000000000001 0 0  1.16875 0 0  0.61875 0 0  0.61875 0.41 0  1.03125 0.41 0  1.71875 0 0  1.99375 0 0  1.99375 0.41 0  1.340625 0.3489494290853124 0  1.134375 0.3489494290853123 0  1.700180620188976 0.3438659752031281 0  2.135782184673599 0.07126652247502523 0  1.668441847249787 0.2129203728327609 0  1.295782514339747 0.2378437748815763 0  0.8233075729931248 0.06842334294821524 0  1.409375 0.3520314716057996 0  0.403505597322782 0.182067236678212 0  0.378125 0.05794951541303489 0  0.3043468223249023 0.1518321115979534 0  2.129248544730567 0.1906135162504124 0  2.060771381434487 0.1989445750470348 0  2.013252586573865 0.1496169464686054 0  1.942766402200229 0.1734448904596831 0  1.895522487186454 0.06076163953489683 0  2.069553871656643 0.06605731020975725 0  1.274680914880868 0.3520219391081363 0  1.614713220494657 0.09473434380863296 0  0.7899021319497519 0.3149123934144827 0  0.69518737419149 0.0634051089053758 0  0.2971740475496061 0.2592172353407536 0  1.72990325744076 0.2380068107952482 0  1.356580098625191 0.2120393231351682 0  2.034370752044885 0.2668681600792073 0  1.51768709249349 0.3426260931494756 0  1.561883724969884 0.1650446847858835 0  1.197344062229598 0.2523725417393646 0  1.804085235518364 0.3468178408964637 0  1.817887819205233 0.2589243285818559 0  1.905897727272727 0.3485060975609756 0  0.6719798073392919 0.2688965171178177 0  0 0.05125 0  0.653125 0.35875 0  0.6396896119294488 0.1627615407790282 0  0.4274150154087412 0.1242548552168279 0  1.192836486056382 0.3562350748565544 0  0.8279124365364005 0.183856489168822 0  1.097485222388854 0.2083571153401724 0  1.28257088594801 0.2944411014911587 0  1.474860187679412 0.2504218616229368 0  1.406767003493824 0.2829282258560709 0  0.446875 0.04619219810344041 0  0.515625 0.04585361801037557 0  0.592043440706648 0.05125 0  1.845656689180403 0.1998310418452388 0  2.144958525570388 0.2909790873294231 0  0.6171090763650112 0.2492366900333857 0  2.2 0.15375 0  0.5145586920831158 0.3648371739579888 0  1.57794966442982 0.3540357145964566 0  0.721875 0.3633107922168974 0  0.0496154796471391 0.333125 0  0.5843750000000001 0.3662560860076676 0  0.5810878747760798 0.1474002776121195 0  1.508991196088596 0.1421783375065625 0  0.8840670607017558 0.2640994375393898 0  0.09776612425612034 0.2204896805326566 0  1.50436820029908 0.06143401634903343 0  1.223857000523521 0.0823554862453532 0  1.153316824384777 0.1289850171317837 0  2.148922302309752 0.1258841779285271 0  0.309375 0.04312325590431198 0  1.621993280276081 0.2841214267927899 0  1.550118654119087 0.2461998729100966 0  1.327182649291491 0.1216967252533594 0  1.051977450479407 0.1221382572915816 0  1.753125 0.04556020050186112 0  1.271875 0.04556020050186116 0  0.9816084133102366 0.05126138213476004 0  1.039051841454368 0.0572224914831029 0  0.9719230514536006 0.3480477870845102 0  1.94956388244759 0.1180512551534177 0  1.949997712993411 0.04965831614304109 0  1.771961817615021 0.1530278789497521 0  1.909246823951428 0.2812757146784527 0  0.2459536687882397 0.04668633953831142 0  1.948575539857022 0.2445328248721197 0  1.697271520964565 0.1233917627620729 0  0.7964897648514618 0.1211426571931604 0  1.065625 0.3689344961371042 0  1.085849084308977 0.3170853572226867 0  0.4702981435440001 0.260434880697798 0  1.577403511714593 0.05463601888079143 0  0.05622663515370135 0.05493816910862376 0  0.3267207591099919 0.3566194660323104 0  0.9003051618565143 0.3564049499960621 0  1.751571320346033 0.3651102912045228 0  0.1583785085108421 0.2994699345738728 0  0.1455283439499995 0.3542795598723423 0  2.2 0.35875 0  0.2347662494194072 0.298325008655211 0  0.1527284455616188 0.1065771775690181 0  0.1382139529076665 0.05427454456341477 0  0.8749341636311069 0.05110114999892954 0  0.643661668713109 0.05693499781019222 0  1.466879772203159 0.3611261772912453 0  1.990280163552011 0.3564754268533217 0  1.17471064520912 0.2990917256188288 0  0.5202693090594349 0.206382495511728 0  0 0.25625 0  2.2 0.25625 0  2.2 0.05125 0  0 0.15375 0  1.853978576207987 0.35875 0  0.9787513713939683 0.1487523696999336 0  0.240625 0.3722153812029779 0  1.515638456102889 0.2882700110184686 0  0.09048297387599738 0.3637717362208066 0  2.150453692751374 0.2387066338105111 0  1.323782677156475 0.04897634338873398 0  0.8074131292871642 0.3624701995505916 0  1.409375 0.03715320121951221 0  1.406484531114799 0.1087852750766809 0  1.134375 0.03715320121951218 0  1.627401732573545 0.04552157221025036 0  0.1170173172005315 0.1427610859166811 0  2.045405893604797 0.1105340662939892 0  1.255408269734577 0.1577307500159216 0  2.028125 0.03707597992059326 0  0.4743610090857199 0.1421513964721819 0  0.9354010469015898 0.250631300585664 0  0.04420832937638274 0.128125 0  0.8922386349349938 0.0992956419364831 0  0.1197849154434487 0.2663398672460083 0  1.248258025468107 0.2565907092181813 0  0.3746885856929528 0.370723531618974 0  1.203125 0.0366132337404304 0  0.5724622277005015 0.2751253816079333 0  0.3365425205162783 0.08395777655057959 0  2.072662025974815 0.2975086504196739 0  0.4581080832182547 0.3648371739579888 0  0.3874522734668214 0.2295447548840689 0  0.7827853612484443 0.04106550386289586 0  1.887722846421017 0.1760882698830035 0  1.472640588990488 0.1118278026240017 0  1.865937103925594 0.2604137786483804 0  1.463913572748262 0.2030442564990043 0  1.376426316059077 0.3186741374914345 0  0.6641993820150034 0.3141688596240831 0  0.2943117490824315 0.2130987422685822 0  0.3478153998082709 0.1666571081082676 0  0.3427990510599805 0.2575950027870776 0  0.7997118993855807 0.2216171933356366 0  
[...]
<PointData  Scalars="f_10-0"> 
<DataArray  type="Float64"  Name="f_10-0"  format="ascii">3.5138444746570533e-05  7.9321109970788718e-04  5.3412641167698066e-05  2.5840806455983001e-05  7.3397876902986966e-04  1.5508424851947242e-03  2.1700478075462599e-03  2.1529737929298215e-03  1.4540094277726580e-03  6.6405935128063755e-04  3.1332145020532113e-04  2.2114445561049521e-04  1.8423652048173871e-04  2.3410472609845792e-04  3.7079583941366308e-03  3.6146674965492837e-04  1.9942147351352372e-04  4.7313223300841801e-03  6.1968507571359373e-05  5.1563068128965203e-03  4.8439618888687445e-05  4.2547900254796220e-04  1.5910397797530289e-03  1.7644175783340719e-04  4.2091248567590342e-03  2.9511809941220471e-03  5.0457663748898105e-04  4.2395474728854960e-04  1.5892597624208576e-04  1.6418367420929423e-03  9.2168605791922574e-04  1.8154670128554314e-03  1.8867858377823905e-03  1.8753307880961573e-03  8.7656767408321340e-05  1.6094271871768305e-03  3.4491803597495424e-04  1.5798664537425622e-04  6.7715960972189869e-05  5.4593423558161720e-05  4.9866437430645212e-03  5.1410183129758479e-05  2.9110172375624758e-04  2.4019540603669883e-03  2.3313069035916945e-03  9.0639560127106066e-04  5.0287415794011340e-04  9.9005229453654310e-04  2.6648308067390698e-04  3.9624980822142832e-03  1.0341161901587246e-04  4.4688399235932857e-03  3.7200394879030427e-03  3.9970750423104108e-05  3.3964478980288470e-03  2.6837525244806895e-03  4.4867754497352098e-04  1.6460317534345743e-03  9.8827534785030612e-04  8.3235400391390814e-04  3.1477220129930900e-03  1.0658557660811272e-03  1.1814294946734755e-04  7.0630487175598927e-04  2.0725447421083773e-04  4.1466484235278309e-04  3.1330297831087817e-04  3.9135676354650544e-03  3.8814969290846108e-03  7.0905182506543108e-05  4.3834182424670883e-04  1.4776924056646745e-04  4.3256740984030382e-03  1.7362032687436913e-03  1.3202335431445589e-04  4.3822841118293918e-04  3.8707316432961072e-04  8.5081146464945176e-04  8.5231281540145895e-04  3.9499545486971948e-03  5.3120432663543004e-04  5.9424522331843316e-04  2.5212739853610808e-04  1.3230736656643176e-03  2.9870871692913195e-03  9.0752686735749255e-05  7.9726965189382145e-04  2.2214800281271183e-03  3.3641551608442843e-03  2.7166587674015866e-03  3.3837015789795863e-03  5.4782159222035195e-04  7.2476035103787324e-05  6.1407554850417692e-04  1.1847533321165456e-03  2.4913616337070639e-03  1.4174975406492098e-03  7.6494486111515614e-05  1.5529715744921563e-03  4.4512216351072402e-03  4.9354847830867209e-03  8.7086480897402438e-05  7.5492228971299428e-05  4.8270470577608192e-04  4.0852545943397475e-03  1.3779697040546318e-03  4.9213471132650774e-03  9.3602575105449415e-04  3.6374881480911390e-04  4.0718268993153607e-04  1.4027957172807912e-04  5.1054411648958336e-03  3.0539047988004494e-04  5.4915051050949916e-03  3.0188341518564794e-03  2.9798729703164743e-04  6.6018001803559722e-04  1.2234847516266091e-04  3.0151411339947158e-03  2.2007182319322004e-03  2.9529117456156854e-03  3.1953680778332321e-03  3.5148382389496748e-04  1.8741488965076589e-03  1.2799123286729307e-03  1.8890112747828062e-03  3.4997416787144664e-03  3.8363986727575545e-03  2.2454350207860357e-03  1.6758821674543749e-03  8.4112123553107832e-05  2.7455960243762544e-03  2.4173232660668949e-03  1.3565233040118473e-04  1.9689376448197566e-03  1.2210390943346910e-03  3.3833032726019708e-03  7.7892181327913329e-05  9.8148062035079814e-04  3.5918830876266983e-05  4.3736898423879992e-05  3.8404881476443338e-03  1.7522083987609951e-04  4.2064681270597339e-03  4.7293504590760168e-04  6.0626150416838269e-04  9.4993931226194906e-04  6.3444821377034498e-04  2.6589043207069468e-03  5.1394030347174887e-04  2.2406234069214946e-04  4.0199358080468677e-05  4.3384657430233014e-03  2.1818583397968059e-04  4.8610776679300239e-03  5.0305653325905942e-05  5.3807909749430677e-05  4.4362452699994475e-05  1.5633895012659744e-03  3.5633882841561025e-03  4.5997280479528864e-03  7.8768847749666909e-05  3.1232466703018949e-04  1.2284556932381928e-03  2.6221647372926969e-04  1.0825015836193201e-04  6.0929461762583093e-04  4.9688188987956827e-04  5.1797308379640658e-04  1.3027819137785928e-04  1.2364871671920134e-03  1.4765976213196605e-03  3.9712435760184302e-03  6.1913224582526107e-04  2.3396633271812080e-03  4.8736075876057135e-03  2.9719080930348772e-03  1.4865946183996941e-04  2.3850481448514329e-04  3.5602664799320966e-04  5.1721110810485174e-04  6.5064541562305088e-04  2.1524044611988027e-04  5.6949387347416498e-04  1.9655785062578572e-03  4.2643129496463877e-04  4.2390850665912872e-03  2.9729804796102636e-04  9.4005210220827313e-04  1.7438106032326651e-03  2.1549069239921708e-04  6.5167841157233702e-04  1.8480399297886227e-03  1.3036770812895613e-03  3.8472097730985757e-04  6.4005285735107501e-04  2.5553208134673067e-04  7.3888264077806966e-04  6.2874095473261298e-04  1.3096609406053366e-04  2.7248384052020449e-03  3.8707768032596917e-03  5.0565949283835345e-04  2.2393554099546849e-03  1.8445485543280137e-03  9.2204827695372966e-04  1.2830094334922062e-03  1.0356888023841683e-03  4.8354409007283347e-03  4.7001262228942983e-03  4.5275993509073112e-03  7.5611413154584323e-04  8.7849834827163486e-05  9.4129278536954678e-04  9.4629018341573111e-05  7.1508103095079722e-05  5.8353549165369154e-04  1.5961997408330558e-04  5.5679684781553856e-05  8.9795562799598662e-05  3.1193209670088507e-03  2.1597627134952216e-03  1.0062502962795950e-03  1.7952298702543062e-04  2.4945820615003798e-03  3.2336696685307427e-03  2.8867632879343796e-03  1.3379068820745614e-04  5.1126718781007866e-03  8.8490631477143827e-04  1.2401150356778177e-03  2.7346189092672937e-03  3.0717632239871417e-03  1.2230821926208744e-03  3.3027279395431331e-03  3.8284177264787471e-03  3.6992791535778061e-03  3.8484317177498530e-04  5.2773748431137520e-04  4.5572631934647835e-04  1.1464418114316074e-03  3.9050320252532366e-04  5.3025907034526375e-03  3.9155236080565297e-04  1.5339100592347376e-03  3.3568264905206808e-03  3.8064604073811563e-04  6.4313608400054295e-04  5.1657633869473159e-04  2.1476176305091012e-03  1.2320384782951652e-03  6.5285359062581950e-05  2.9794691589496273e-04  4.0016467115430964e-04  1.0542699211936746e-04  5.6334420358973385e-05  3.7163228082121037e-05  1.2864465813091917e-04  5.4652879565574523e-03  5.9098752703449922e-03  4.0095568428014094e-03  4.3913709353077361e-03  5.9064907938252698e-04  1.5633776604087645e-04  8.3431718592862558e-04  1.6755183427237255e-03  1.2015442421436233e-04  7.2660044537597784e-05  7.3046243024039943e-05  3.1637118458311536e-04  2.9685895544450357e-04  2.7647706800775643e-03  5.5782982545167042e-05  9.5895275811401265e-04  4.4499732296764936e-05  1.0881786073698277e-04  3.1574112371909068e-03  2.1538252247585546e-04  2.8773725738028928e-03  2.6663576540600590e-03  3.6177592187216579e-03  1.8719768751511458e-03  2.6892641303729856e-03  2.8746445957294803e-04  2.4498692634146481e-03  2.5206580704505681e-04  3.4004858467398158e-03  1.2110939048878065e-03  5.5010314724230410e-04  3.5425515856561582e-03  1.2578867703995049e-04  1.2702049908084956e-03  5.8092298089625858e-05  3.4764938157477265e-03  5.2581888065445480e-04  4.5993268899371586e-03  1.4180567264988477e-04  6.3804996942365888e-05  8.2496751972734224e-04  4.2219233549317947e-03  6.7770723764817170e-04  2.4600547291288907e-03  5.2877547580093749e-04  1.7346001174474725e-03  7.7679328602913919e-04  3.1405778914058466e-04  1.1456510949174638e-03  2.8910084187872380e-03  2.7996287780336225e-04  1.5649714380023543e-03  7.3732396239183920e-04  7.8512845743611932e-04  1.3934474343792462e-04  2.5681277281320147e-03  3.3595118306727601e-03  1.5315149814331605e-03  9.0376944127084702e-04  1.2539674439883857e-03  1.9616934608448979e-03  2.9615459902154243e-03  8.6431341682039134e-05  1.8576973267680648e-03  1.7045696962930724e-03  1.1233524070526709e-03  5.0135900892954910e-04  1.9092269772361418e-04  2.8970595800951185e-04  5.8341259709601056e-05  5.2601542061005111e-05  8.6701697009374922e-05  3.0331636230677612e-03  4.3094966406897308e-03  4.5101839865891531e-04  1.1171958730134932e-03  2.0925369744390857e-04  4.4975641029754362e-03  1.3682136773135892e-03  2.1940605985726861e-03  2.4994554169937874e-03  1.4888872486994611e-03  4.9114723743341846e-04  1.9614917262858323e-04  1.4045500759855341e-03  1.4403674350033523e-03  2.9026911828983068e-04  3.4351424820402776e-04  8.5710682468035851e-05  4.1316230710809725e-05  3.5120058402808051e-05  3.9519649825897002e-03  1.7656745847235571e-04  2.2799980487649110e-03  2.6210032467365529e-03  1.1323948976534885e-03  1.0034936746094829e-03  8.0206047247045344e-04  2.1527563896386794e-03  1.7978520502810220e-04  1.2720577410609503e-03  3.4344845645008738e-03  2.5522106842517614e-04  3.7270582648231266e-03  5.4967421749675996e-04  4.8002935029129091e-04  3.5719759395201906e-03  4.5821820312511394e-03  4.2403174936692973e-05  2.6700285697024402e-04  2.4348546871542240e-04  1.5632651134408484e-03  4.9492486990056770e-04  2.0068960714502077e-04  2.6433011360181046e-03  5.3244717064761240e-03  2.2970210527061595e-03  2.6282579478596954e-03  1.0982581482264007e-03  8.0848249228423845e-04  1.2393283265562505e-04  1.4047352619051185e-04  1.8972403194319450e-03  3.2909176722451202e-03  1.3756997244112061e-03  1.4692231631530334e-03  2.3994704067146514e-03  3.6316610384588534e-04  1.2091831584735513e-04  8.0763546988458720e-04  3.4536789153290074e-04  6.5704799644593056e-04  1.9002722874354497e-04  7.4807085114742921e-04  5.2352788900340732e-04  5.7449932723144183e-04  2.3844198130887062e-03  1.4992784182327385e-03  1.6361519226220393e-03  1.7642737905643256e-03  9.4557384430406612e-04  4.7281039567912829e-04  1.2437411385605567e-04  4.0154306726523265e-05  1.0447368587257176e-04  2.3446387866565615e-03  2.6423870577486574e-03  6.0976809761215643e-04  8.2857980406435421e-05  4.6636886014957421e-03  1.1992714863855404e-04  1.1714364760616249e-03  3.8451878207924339e-03  2.8571547767112252e-04  1.9436251733384274e-04  1.9502992580581351e-03  2.7502633228369317e-04  1.1664670104304655e-03  3.6816871050187505e-03  2.9091263439129719e-04  1.1105218184110568e-03  5.7035242174481917e-05  5.1537357904600099e-05  1.2481444579647389e-03  4.9486380935880726e-05  2.3970890124822807e-03  2.3957566865643880e-03  3.7973181945955936e-03  2.4725877850193907e-03  3.8118868240138732e-03  3.0956090045729988e-04  1.1785115763667249e-03  2.3218677910683087e-04  9.2512086705037909e-05  2.3384326240360781e-03  1.0607372416072387e-03  1.9002813285146259e-03  1.3515129675035116e-03  2.6520605272457635e-03  2.7332807953735399e-03  3.0518745385075584e-03  3.1505637863477130e-03  1.4640187159387008e-03  2.3659367214280544e-03  4.5338789171620833e-04  2.1481807862647182e-03  7.7991905982467642e-05  3.1138020762365606e-03  2.8563944779651028e-03  2.0875092329129459e-03  8.4293083962457756e-05  7.3138558463924682e-04  6.4846629453442332e-04  2.6626155085246418e-04  3.3606365372555245e-03  2.6273083474861114e-04  5.5240239891071611e-04  1.0263033734493219e-03  4.9300558984610471e-04  1.6462209693558687e-03  5.3751438425787747e-04  3.3863380401851877e-03  7.6255398883051011e-04  2.6791430676626968e-04  2.0441816041231296e-04  2.6617048099915498e-04  3.0383034942169378e-03  2.1967179725341816e-03  1.1473075991574111e-04  1.4762951589004271e-04  1.1002903038212954e-04  4.7706241453794991e-04  2.3198204413137397e-03  1.8710538596647993e-03  2.9176018300516144e-03  2.2314333709511046e-03  4.4558464789266417e-03  2.8391320294011927e-03  4.5920376151843256e-04  3.9524074390245101e-03  4.0259413176756027e-03  4.1473717514568182e-03  4.1393625235858576e-03  1.1078961144555780e-04  1.6398157711497755e-04  3.8491743625683884e-03  4.3443343231657812e-04  6.1219357431895657e-05  7.3680199572411648e-04  1.7316928559672350e-03  1.7125321754082547e-03  8.3928265687763703e-04  9.7822062542726631e-04  1.0320888414249441e-03  5.0038117863778434e-03  5.7169208839455929e-05  3.5000723270457276e-03  2.2301521444415451e-03  6.9790667950891765e-04  2.7483096263551427e-03  4.3307244438531691e-04  3.8496883614444141e-04  5.2382186913217145e-04  4.9250606699145283e-04  5.5314437317901697e-04  7.0875891256702702e-04  1.9552877403010570e-03  1.6654041709029043e-04  4.2727320951045655e-04  1.5582844374833053e-04  8.8868817349725042e-05  1.7822080513601451e-03  3.4337152529327415e-03  4.9403889222193976e-03  5.0502209841318049e-03  1.2729314738605576e-04  3.1701142982175514e-04  1.7632505771513426e-04  1.5230005340999121e-04  8.0806380076195341e-04  3.4011862250149225e-03  1.3816078524300935e-03  4.3911405808788623e-03  3.5733266072621090e-03  3.8594486755179338e-03  7.8944047310930150e-04  3.9332213809673249e-04  3.8417808604734985e-04  3.0630578004985369e-04  3.1023816867418389e-04  4.6497694513149030e-04  3.9393568609177794e-04  3.5549148479373373e-03  4.8173633853624415e-03  3.0806695373473158e-03  3.7720942225377648e-03  6.4165636845570263e-05  1.1673631623619823e-04  3.6366760450729503e-03  2.8125750983628655e-03  5.1109594332392151e-04  3.2899239585744211e-04  3.3731414914795420e-04  1.0698592007043770e-03  1.1914725831542025e-04  5.1021343702771461e-04  4.4027045423800475e-03  3.0784143977601524e-05  4.0212585984773829e-03  5.0843580117971199e-05  4.9262395028644729e-03  5.2041121303531461e-05  2.6356594750119142e-03  4.6645256959008133e-05  5.0947010056876345e-03  3.7561676553281648e-05  4.5355228259897637e-03  4.2737053312126736e-03  5.1493092364979952e-03  6.8675073783569182e-05  5.6712625630996725e-05  4.6676029342295399e-03  4.7989546824748295e-03  8.8574006828634225e-05  3.8969070650053568e-03  3.4831029037123841e-03  1.7762447926060426e-03  3.3493499915499588e-04  3.3008861471811477e-03  2.0393497443841916e-04  1.3080120678369409e-04  4.1374815938380560e-04  3.6385691433055454e-04  3.9691979611246918e-03  2.4884865473569127e-03  2.4995389961479861e-03  4.4362914925503713e-03  1.4125954783447523e-03  1.1200575269243169e-03  6.0087034499826659e-04  7.7981555394037957e-04  7.8929770155010805e-04  5.3219651341292922e-04  1.5722185818789757e-04  6.8498974243626871e-04  5.3913243010347725e-04  9.1109802529853339e-04  3.4274191022240361e-04  1.1601767579979231e-03  4.7718708578873472e-03  1.2597264748646466e-03  9.6611618835610929e-04  1.0339130608921897e-03  1.8318736444197076e-03  3.0188414847511999e-04  5.3783515704811070e-04  4.6985832265017510e-04  9.0811998901385756e-04  2.9680619646501065e-04  1.5591333346731023e-04  1.2449502806914753e-04  1.9673260929555475e-03  9.3209263860245104e-05  1.9166427906839483e-04  2.0678442761259860e-04  3.4328952579958149e-03  1.1715251634212176e-04  2.0948090435416282e-03  1.3090688776243078e-04  6.2977338343423209e-04  5.2629088052340278e-04  6.2131406000706321e-04  4.2960534443455517e-05  1.0461519523877370e-04  6.1938328557312201e-03  4.9965099655910024e-04  6.6485613358106333e-04  1.3591946360396920e-03  1.7340645519688797e-04  3.0943851055849927e-04  1.8181786337624851e-03  3.8333912303677116e-04  6.7433522630886019e-04  6.6218416184254882e-04  4.7041884672278423e-04  8.3471923854376139e-05  4.3252937138478923e-03  2.4081406887660963e-03  2.0280571256580116e-03  3.4901485169184588e-03  4.1306511360542954e-04  2.1272796723720831e-03  1.8435881470821411e-03  2.3873448329889291e-03  2.0020402573056381e-04  5.3795744909152041e-04  5.1285564636123894e-04  7.0917358316690464e-04  3.5828402286827857e-03  4.7440058610946113e-03  3.2884607354588475e-03  5.0128963719411001e-04  2.9768003696767770e-03  1.8105470534385429e-03  5.1237033963398423e-03  2.9232514939255710e-03  3.1753749317019564e-03  4.4112055003317358e-03  1.5159276238386904e-03  2.3146270376236730e-04  3.8259649121079564e-04  2.3239672305571104e-04  2.2632607683954458e-03  3.0893026086731348e-03  2.1373358167468349e-03  7.7137862654785036e-04  3.5169603728102241e-03  6.9018089485995576e-04  1.8286192777691019e-04  7.7587313658862849e-04  4.5565920478598289e-03  1.5990273114296174e-03  1.0732689273143553e-03  1.5204978464164309e-03  1.4351690681322531e-03  2.6081673279599944e-03  6.2188028510507280e-04  5.1880977085464255e-04  1.8848046106355776e-04  2.4778339683287492e-03  1.3867830839738881e-04  7.4042130416450891e-04  8.0196115177105158e-04  2.0639254481935872e-03  6.8408801680400026e-04  7.0965119896130972e-04  9.7938179809423451e-05  9.0462353812584755e-05  6.3667567270119646e-04  5.1724262260140590e-03  5.5823153080634171e-05  2.3331490526550878e-04  4.4097360567461918e-04  6.4609032190394869e-04  5.2006712725753310e-04  8.4392637557282522e-05  3.2161900095743342e-03  2.6338144481956386e-04  2.4116221994887805e-04  1.4824050368222061e-04  1.6959590522066693e-04  5.0501229351301927e-03  1.7206076149663837e-04  4.5984564450046809e-04  8.7403467960588479e-04  1.4664310810579137e-03  1.8159581821799295e-03  4.2974376752231546e-04  8.0649534589114654e-05  9.4118245848938355e-04  4.3065446289227375e-03  2.2695292096215833e-03  1.9956011087292700e-03  2.6152684441706681e-03  9.3513833416820425e-04  2.1497219965643153e-03  9.8854476195622552e-05  1.2207180330620396e-03  1.7616723513033238e-04  3.6595313566540276e-03  5.6063490765842199e-05  7.6344556347507830e-05  4.8216784541256009e-04  7.1409130309443142e-04  1.6518922516023987e-03  1.4821138526750536e-03  1.0374930776538796e-03  1.4651449946409567e-03  2.7478092608669799e-03  3.2959162561513734e-04  4.2180961398362183e-03  4.1478398625129417e-03  4.3678025560890069e-04  1.9047448038370151e-03  1.8746330687708847e-03  1.0947365543256167e-03  1.2661812823523925e-03  2.7170384956178646e-04  3.6448696936185994e-03  6.5663103563013824e-04  8.5547875931167171e-04  8.9012011119006561e-04  5.3453906742548273e-04  2.5462771233256988e-04  9.3795574725258289e-05  8.7634732350419018e-05  9.6152079850671669e-04  1.2008417449023835e-03  2.3587102248925600e-04  4.8999129437343508e-04  1.3487300943844523e-04  1.3856311370184964e-03  9.7400262276156971e-04  5.9809207917175655e-04  4.3182788697259727e-03  2.8014350818274295e-03  1.1468658444783420e-04  3.8041149595875409e-03  1.4094349365328636e-03  4.5402883371999554e-03  2.1968894203745096e-03  7.2910392377199969e-04  4.6121279085445345e-03  3.0976934495889849e-03  3.5737329545606203e-03  4.6272653944716864e-03  1.5662260446363437e-04  3.3322358898295280e-04  7.8357174782205333e-05  1.1422008191783702e-04  6.5715171153903784e-05  6.2113373403165938e-05  5.9308734477869773e-04  1.9858343283865449e-04  2.6655283504961138e-03  3.2440529209428479e-03  1.2157067537450236e-03  1.0425612109909777e-03  2.0137789382091245e-03  1.9898170123372602e-03  2.8167725976984410e-03  3.1597574037161473e-03  4.7880235712512761e-03  1.9945716988194000e-03  5.8226412078336246e-04  6.5867370724660332e-04  4.9266739195798291e-04  6.7983557242068502e-04  6.0102884429102066e-05  8.0164305277509462e-05  3.1761033631365313e-03  3.6903390533837310e-03  5.4794097393263668e-03  1.5240826913357117e-03  4.4330918824072190e-05  5.1956467367951491e-03  3.5172001988061606e-03  5.2916120416872077e-05  2.7864259783739972e-03  9.1684701044286883e-05  2.2463565594211502e-04  1.5869002702903430e-04  6.9935282967449944e-04  5.6776106206157426e-04  1.5304420132567718e-04  6.2095396459361000e-04  7.1817942364031163e-05  6.4614995447445352e-04  5.4931162803149298e-05  6.3783203744839355e-05  5.4427000369542504e-03  6.8067441135292459e-03  5.4808166739764069e-04  1.7658426178424134e-04  2.8533008075144170e-04  1.4200727009446696e-03  1.0395526327996517e-03  1.2964851132819595e-03  7.5195581999308830e-04  3.3304400781211190e-03  1.6779043969865786e-03  8.5424073804026316e-04  6.8475063619507785e-05  3.8118258291770291e-04  5.4946339270474322e-04  4.4076159289816775e-04  8.2683486534819222e-05  3.2165689473929683e-03  4.7166764729687240e-04  2.2227350579983964e-03  1.2528966661123719e-03  4.3395483288791582e-04  9.2194575118275963e-04  2.7064021424398842e-03  4.7534757868311133e-03  7.5052542904905349e-04  5.1295958423309262e-03  7.7019550614908705e-04  1.7989099787801273e-03  2.8809561405375986e-04  1.0812984971663717e-03  3.0139872849267