<?xml version="1.0"?>
<VTKFile type="UnstructuredGrid"  version="0.1"  >
<UnstructuredGrid>
<Piece  NumberOfPoints="2446" NumberOfCells="4585">
<Points>
<DataArray  type="Float64"  NumberOfComponents="3"  format="ascii">0 0.41 0  0 0 0  2.2 0 0  2.2 0.41 0  0.2404508497187474 0.2293892626146237 0  0.25 0.2 0  0.2404508497187474 0.1706107373853764 0  0.2154508497187474 0.1524471741852423 0  0.1845491502812526 0.1524471741852423 0  0.1595491502812526 0.1706107373853764 0  0.15 0.2 0  0.1595491502812526 0.2293892626146237 0  0.1845491502812527 0.2475528258147577 0  0.2154508497187474 0.2475528258147577 0  1.1 0 0  1.1 0.41 0  0 0.205 0  0.55 0 0  0.55 0.41 0  0.275 0 0  0.275 0.41 0  1.65 0.41 0  1.65 0 0  0.8250000000000001 0.41 0  0.8250000000000001 0 0  1.375 0 0  1.375 0.41 0  1.925 0 0  1.925 0.41 0  1.5125 0.205 0  1.7875 0.205 0  0.6875 0.205 0  0.9625000000000001 0.205 0  1.2375 0.205 0  2.2 0.205 0  0.4687002074688797 0.2068568464730291 0  1.99375 0.2152743902439024 0  2.0625 0 0  2.0625 0.41 0  2.2 0.3075 0  0.4125 0 0  0.4125 0.41 0  1.7875 0.41 0  1.375 0.1486128048780488 0  1.5125 0 0  1.7875 0 0  1.5125 0.41 0  0.8250000000000001 0.2613871951219511 0  0.9625000000000001 0.41 0  0.9625000000000001 0 0  0.6875 0.41 0  0.6875 0 0  0.1375 0 0  0.1375 0.41 0  1.2375 0 0  1.1 0.1486128048780487 0  1.2375 0.41 0  1.65 0.1486128048780487 0  1.126715909090909 0.2793064024390244 0  1.676715909090909 0.2793064024390244 0  0.8517159090909092 0.1306935975609756 0  1.348284090909091 0.2793064024390244 0  0.34375 0.3032389320646208 0  1.894702181800738 0.1282910975492754 0  2.092797818199262 0.1282910975492754 0  1.85625 0.3075 0  0.61875 0.3075 0  0.61875 0.1025 0  0.3648540804333487 0.1240075933101478 0  0 0.3075 0  0 0.1025 0  2.099172119769978 0.25625 0  0.48125 0.09238439620688085 0  0.5781001037344399 0.2059284232365146 0  0.48125 0.3196743479159776 0  0.7265881057911006 0.3055240343720796 0  1.99375 0.08395950269330846 0  1.459960956013612 0.3075 0  1.569025960719943 0.2986889805672169 0  0.75625 0.08213100772579164 0  1.03125 0.3278689922742084 0  0.923871252904788 0.3078247185783941 0  1.959375 0.3126371951219512 0  1.749222215368287 0.1025 0  1.275777784631713 0.1025 0  2.2 0.1025 0  1.225938124459196 0.3075 0  1.550777784631713 0.1025 0  1.000777784631713 0.1025 0  1.44375 0.07430640243902442 0  1.16875 0.07430640243902437 0  1.899250267340833 0.2229966846119207 0  0.1020898364287272 0.3140258291809757 0  1.766482954545455 0.2934032012195123 0  0.3405058858996321 0.2119987970531874 0  0.7710785630958338 0.1710968191298857 0  1.046078563095834 0.2389031808701144 0  0.2 0.3400647632937836 0  1.421109702350723 0.2261157654379721 0  0.2800464974185557 0.08982544815605742 0  0.098916018031319 0.09171660955420841 0  2.13125 0 0  2.118919042110979 0.3422084711244843 0  1.30625 0.41 0  0.89375 0 0  1.597888256393107 0.2173787389261347 0  0.20625 0 0  1.829299675393195 0.07400700849299596 0  1.71875 0.41 0  1.16875 0.41 0  2.038220665644273 0.332420740103091 0  0.34375 0 0  0.417496017710808 0.2696595573092803 0  0.2 0.07687845740457822 0  0.9295982307099278 0.1343158415898188 0  0.07390688010811153 0.1697064032433452 0  0.5238366813727013 0.2578302467013575 0  0.05452951551825875 0.25625 0  0.5229630068078351 0.1548816096928243 0  1.452769549894695 0.1548122580621249 0  1.369219062229598 0.07430640243902442 0  1.30625 0 0  0.8504409521244898 0.3356935975609756 0  0.8821881244591965 0.205 0  1.720943423819132 0.1714577452753128 0  1.157188124459196 0.205 0  1.094219062229598 0.07430640243902437 0  1.03125 0 0  1.304056576180868 0.1714577452753128 0  1.67579304192913 0.07430640243902437 0  0.2751941921308361 0.3346083473122598 0  1.209670467133757 0.1362100266964769 0  1.025335513626278 0.1700681449722324 0  0.7562500000000001 0.41 0  1.58125 0 0  0.7567170593862014 0.2409196493502535 0  0.6926714215682891 0.1272249611432207 0  0.4139715849905988 0.3397932387114203 0  0.9840787304190477 0.2717749043358119 0  0.06875000000000001 0.41 0  0 0.35875 0  0.9281250000000001 0.06276726142697993 0  0.5507396469029935 0.3219409231578227 0  0.5504468037989405 0.09136885600634273 0  1.58125 0.41 0  1.631724228912893 0.3381867502687533 0  1.825608881788174 0.14499488549201 0  1.85625 0 0  1.44375 0 0  1.44375 0.41 0  1.85625 0.41 0  2.13125 0.41 0  0.7562500000000001 0 0  0.89375 0.41 0  0.4812500000000001 0 0  0.34375 0.41 0  0.4812500000000001 0.41 0  0.20625 0.41 0  0.06875000000000001 0 0  1.16875 0 0  0.61875 0 0  0.61875 0.41 0  1.03125 0.41 0  1.71875 0 0  1.99375 0 0  1.99375 0.41 0  1.340625 0.3489494290853124 0  1.134375 0.3489494290853123 0  1.700180620188976 0.3438659752031281 0  2.135782184673599 0.07126652247502523 0  1.668441847249787 0.2129203728327609 0  1.295782514339747 0.2378437748815763 0  0.8233075729931248 0.06842334294821524 0  1.409375 0.3520314716057996 0  0.403505597322782 0.182067236678212 0  0.378125 0.05794951541303489 0  0.3043468223249023 0.1518321115979534 0  2.129248544730567 0.1906135162504124 0  2.060771381434487 0.1989445750470348 0  2.013252586573865 0.1496169464686054 0  1.942766402200229 0.1734448904596831 0  1.895522487186454 0.06076163953489683 0  2.069553871656643 0.06605731020975725 0  1.274680914880868 0.3520219391081363 0  1.614713220494657 0.09473434380863296 0  0.7899021319497519 0.3149123934144827 0  0.69518737419149 0.0634051089053758 0  0.2971740475496061 0.2592172353407536 0  1.72990325744076 0.2380068107952482 0  1.356580098625191 0.2120393231351682 0  2.034370752044885 0.2668681600792073 0  1.51768709249349 0.3426260931494756 0  1.561883724969884 0.1650446847858835 0  1.197344062229598 0.2523725417393646 0  1.804085235518364 0.3468178408964637 0  1.817887819205233 0.2589243285818559 0  1.905897727272727 0.3485060975609756 0  0.6719798073392919 0.2688965171178177 0  0 0.05125 0  0.653125 0.35875 0  0.6396896119294488 0.1627615407790282 0  0.4274150154087412 0.1242548552168279 0  1.192836486056382 0.3562350748565544 0  0.8279124365364005 0.183856489168822 0  1.097485222388854 0.2083571153401724 0  1.28257088594801 0.2944411014911587 0  1.474860187679412 0.2504218616229368 0  1.406767003493824 0.2829282258560709 0  0.446875 0.04619219810344041 0  0.515625 0.04585361801037557 0  0.592043440706648 0.05125 0  1.845656689180403 0.1998310418452388 0  2.144958525570388 0.2909790873294231 0  0.6171090763650112 0.2492366900333857 0  2.2 0.15375 0  0.5145586920831158 0.3648371739579888 0  1.57794966442982 0.3540357145964566 0  0.721875 0.3633107922168974 0  0.0496154796471391 0.333125 0  0.5843750000000001 0.3662560860076676 0  0.5810878747760798 0.1474002776121195 0  1.508991196088596 0.1421783375065625 0  0.8840670607017558 0.2640994375393898 0  0.09776612425612034 0.2204896805326566 0  1.50436820029908 0.06143401634903343 0  1.223857000523521 0.0823554862453532 0  1.153316824384777 0.1289850171317837 0  2.148922302309752 0.1258841779285271 0  0.309375 0.04312325590431198 0  1.621993280276081 0.2841214267927899 0  1.550118654119087 0.2461998729100966 0  1.327182649291491 0.1216967252533594 0  1.051977450479407 0.1221382572915816 0  1.753125 0.04556020050186112 0  1.271875 0.04556020050186116 0  0.9816084133102366 0.05126138213476004 0  1.039051841454368 0.0572224914831029 0  0.9719230514536006 0.3480477870845102 0  1.94956388244759 0.1180512551534177 0  1.949997712993411 0.04965831614304109 0  1.771961817615021 0.1530278789497521 0  1.909246823951428 0.2812757146784527 0  0.2459536687882397 0.04668633953831142 0  1.948575539857022 0.2445328248721197 0  1.697271520964565 0.1233917627620729 0  0.7964897648514618 0.1211426571931604 0  1.065625 0.3689344961371042 0  1.085849084308977 0.3170853572226867 0  0.4702981435440001 0.260434880697798 0  1.577403511714593 0.05463601888079143 0  0.05622663515370135 0.05493816910862376 0  0.3267207591099919 0.3566194660323104 0  0.9003051618565143 0.3564049499960621 0  1.751571320346033 0.3651102912045228 0  0.1583785085108421 0.2994699345738728 0  0.1455283439499995 0.3542795598723423 0  2.2 0.35875 0  0.2347662494194072 0.298325008655211 0  0.1527284455616188 0.1065771775690181 0  0.1382139529076665 0.05427454456341477 0  0.8749341636311069 0.05110114999892954 0  0.643661668713109 0.05693499781019222 0  1.466879772203159 0.3611261772912453 0  1.990280163552011 0.3564754268533217 0  1.17471064520912 0.2990917256188288 0  0.5202693090594349 0.206382495511728 0  0 0.25625 0  2.2 0.25625 0  2.2 0.05125 0  0 0.15375 0  1.853978576207987 0.35875 0  0.9787513713939683 0.1487523696999336 0  0.240625 0.3722153812029779 0  1.515638456102889 0.2882700110184686 0  0.09048297387599738 0.3637717362208066 0  2.150453692751374 0.2387066338105111 0  1.323782677156475 0.04897634338873398 0  0.8074131292871642 0.3624701995505916 0  1.409375 0.03715320121951221 0  1.406484531114799 0.1087852750766809 0  1.134375 0.03715320121951218 0  1.627401732573545 0.04552157221025036 0  0.1170173172005315 0.1427610859166811 0  2.045405893604797 0.1105340662939892 0  1.255408269734577 0.1577307500159216 0  2.028125 0.03707597992059326 0  0.4743610090857199 0.1421513964721819 0  0.9354010469015898 0.250631300585664 0  0.04420832937638274 0.128125 0  0.8922386349349938 0.0992956419364831 0  0.1197849154434487 0.2663398672460083 0  1.248258025468107 0.2565907092181813 0  0.3746885856929528 0.370723531618974 0  1.203125 0.0366132337404304 0  0.5724622277005015 0.2751253816079333 0  0.3365425205162783 0.08395777655057959 0  2.072662025974815 0.2975086504196739 0  0.4581080832182547 0.3648371739579888 0  0.3874522734668214 0.2295447548840689 0  0.7827853612484443 0.04106550386289586 0  1.887722846421017 0.1760882698830035 0  1.472640588990488 0.1118278026240017 0  1.865937103925594 0.2604137786483804 0  1.463913572748262 0.2030442564990043 0  1.376426316059077 0.3186741374914345 0  0.6641993820150034 0.3141688596240831 0  0.2943117490824315 0.2130987422685822 0  0.3478153998082709 0.1666571081082676 0  0.3427990510599805 0.2575950027870776 0  0.7997118993855807 0.2216171933356366 0  
[...]
<PointData  Scalars="f_10-0"> 
<DataArray  type="Float64"  Name="f_10-0"  format="ascii">4.4000764220680937e-06  5.2485532579784006e-04  1.7528601777925900e-12  7.6494529219364937e-13  6.2625059964303040e-04  1.4230930680928144e-03  2.0234156338805763e-03  1.9996150557510528e-03  1.3062049425755927e-03  5.2587806308313162e-04  1.8615120832341298e-04  1.0524119429408663e-04  7.7013504029261527e-05  1.3288533928661566e-04  7.4110116167136562e-04  6.7053211969866054e-05  7.3677473735433483e-05  4.4521463725284661e-03  2.3315414555575963e-05  4.9145502556550693e-03  8.3010511522701712e-06  1.2207757287629431e-07  4.5368856798928813e-07  9.9770660369323598e-05  3.0332105408669712e-03  3.9650474097863047e-05  6.7750260589594120e-06  1.4291986110736943e-09  4.8042845947119308e-10  1.0277436776124771e-05  8.5633984470402188e-08  1.6540050097130568e-03  1.2088611189364274e-03  2.5705664355342602e-04  6.8870297349840185e-12  1.4868316907044835e-03  9.2017324947208355e-10  5.0228500912147717e-11  1.8210898243980730e-11  3.5157765774858585e-12  4.7485181232275377e-03  1.0877836658284131e-05  8.5283468438271854e-09  7.8993354907796112e-05  5.1880509129651095e-06  2.8400844695476665e-08  1.1072791258203035e-06  8.0224310400289918e-04  1.0373112978584559e-04  1.7836179168138624e-03  5.9379366531056383e-05  3.9548053240681270e-03  3.4619156311013134e-03  5.6107847685564383e-06  2.1088288052553071e-04  9.3289702728869498e-04  2.7038021780509570e-05  1.3062987743461791e-06  2.8893104217639744e-04  4.2587659953286334e-07  2.5359095935236615e-03  4.7291051015217893e-05  4.9731274892069308e-05  9.7893554328333528e-09  9.1222971258837298e-11  1.0203689562498215e-08  2.5046827486837985e-04  3.6792985568019606e-03  3.6965836631560581e-03  1.5493626031573446e-05  2.2073864647774840e-04  5.9217769911860412e-11  4.1160390341054443e-03  1.6049372477393512e-03  7.6915790441703442e-05  3.5784805667051135e-04  8.5804400474822010e-10  9.2878995320139947e-06  2.1261095198857557e-06  3.4764238311682963e-03  2.2946025456869158e-04  3.8437541852332548e-04  1.0372019158957539e-09  1.9338217574136456e-07  2.4364592941844058e-04  6.5752352962964885e-12  1.0693262639187909e-04  6.6957946993413482e-06  1.7586370893652250e-03  2.9908638116108692e-05  6.1725793894884843e-04  7.5743669949606536e-09  1.5867704110270332e-05  7.1112129964175923e-08  1.0710012834857655e-03  2.2041113274911726e-03  6.6088224879600594e-04  1.8315666848867423e-05  3.1688867914199438e-05  4.2581127043374032e-03  4.7167515961660496e-03  7.8793584329409952e-12  1.6061824769293179e-11  1.4342113740862412e-05  2.4167885863825849e-03  2.5444552335398883e-06  4.6731367252351042e-03  3.2064318745916011e-08  3.5456097220827860e-08  4.5384601370447354e-05  1.2868272051116015e-10  4.8677296561680421e-03  2.2941207903900434e-04  5.2891771908327072e-03  2.0745936599659565e-03  1.4410404397641858e-04  5.7472880673244684e-04  3.5571698077688796e-05  2.8454760025003220e-03  2.8717939987151904e-05  7.9363562021338586e-05  9.4141406951706375e-05  2.4487650857150163e-04  1.4471384533232116e-03  3.4301416819126499e-07  4.7808076672119248e-04  1.0610817618486427e-03  1.2151979521973560e-03  1.6283484180851655e-04  6.7978319873427875e-07  2.2908778848655821e-05  4.4004018410918335e-04  1.2340176399123425e-03  8.0464695279878424e-05  1.6379035883944056e-06  1.0618112714832883e-03  3.1219273753740318e-03  2.6490927273822839e-05  5.6502453523371153e-04  4.5755134393971778e-06  6.8149228604983689e-06  2.3910434550409128e-03  1.2112170973635878e-04  3.9869717754075842e-03  3.8330289671100207e-07  4.9275338156553674e-07  4.4283812337130278e-08  6.4687429034845031e-09  1.4564140938226786e-05  2.9615598712380611e-06  2.2187597798745822e-09  3.3262439404384513e-12  3.5487974958445250e-03  1.0595900349724388e-04  4.6134129800345491e-03  9.3571303730859100e-06  1.4479292252064554e-05  6.8502726538175165e-06  1.2973854971896548e-03  4.2113035345341446e-04  4.2432344931703590e-03  3.9215863003300505e-05  8.7275768698104350e-05  1.1897555760145736e-07  2.5834773745913825e-10  1.0132127454869416e-10  2.2114258071440220e-05  1.1098235772058033e-04  1.3833624800950885e-07  2.2388775750885228e-11  7.7950001827121886e-07  1.1841372230613441e-04  3.1865243542785818e-03  9.9402337632170606e-06  2.1949337850661922e-03  4.6515905558221163e-03  2.8093670164428277e-03  3.6196734568146034e-11  1.9514663466252801e-10  6.5632677336194008e-10  3.3642785779260396e-09  6.8292087298518290e-09  1.1473684218519574e-10  3.9808322619779283e-05  2.2625589910065405e-06  3.3192533670519617e-04  3.8595585467563541e-03  2.0609205426978222e-04  2.2042585304497656e-07  7.4776123349443564e-05  2.6542341549706122e-10  2.7236823047610007e-06  5.6082841956555117e-06  2.4297424207065976e-04  1.8495330080024831e-08  3.3663563956831697e-08  2.1582110989018777e-09  6.4388793017415222e-04  3.7462626873430459e-04  8.5019521875466297e-05  2.5397763844901685e-03  3.6824270514927235e-03  7.0654665194178458e-05  1.8759730211523956e-03  6.7412957832691683e-04  7.7389070704796646e-05  1.3054158416480294e-05  2.3532050536499818e-05  4.6056055396606699e-03  4.4604208456683605e-03  4.2580330131787051e-03  2.5954133530696881e-08  1.4508215360860735e-11  8.4092486481022349e-04  7.2823422098813844e-12  2.8404149877106817e-05  9.3473764677713653e-07  1.0817090595123232e-04  1.0397171613906460e-05  4.7347938517913063e-05  2.9366444210477262e-03  1.3141559805643855e-05  7.4898193457115789e-04  6.4530602213418964e-05  1.1316699241242361e-05  3.9148406954576741e-04  6.9553925090170892e-04  2.1784261911276727e-11  4.8843459741463452e-03  1.0499861067452472e-06  4.5056362001129702e-06  1.4175512675622609e-04  1.3244419147491330e-03  1.1687122988367379e-07  2.0703027091811631e-04  1.8999085230610678e-03  1.4329424604883898e-03  1.9397924298725840e-04  2.7833769551341171e-09  1.7236278181967924e-09  1.3153786486973812e-07  4.1600416390201664e-09  5.0752560548310626e-03  2.2344311512062445e-09  5.5137680330120793e-07  2.8914454737236544e-03  1.1370892612882127e-04  2.1961986280887816e-04  4.3498781498127009e-04  3.3226863220179593e-06  9.8133778347765589e-04  1.5377143318757688e-05  1.7700599657625616e-04  3.8297681496360524e-08  2.9971621522088002e-05  1.0550240550012163e-05  1.8616862480727215e-12  4.4686472352968289e-05  5.2768488287511794e-03  5.6732414767516242e-03  2.8226460796857366e-03  4.0803102360634017e-03  4.2293344327744260e-06  2.9032583650626811e-10  1.7065759655315819e-04  1.5500658822859559e-03  3.4857605906127831e-05  5.3567395782890791e-12  4.1401899612488279e-12  1.4468613570628021e-04  5.6229896667020919e-09  1.6592130104347131e-03  1.0786938295378387e-05  5.2322368797685758e-06  6.9748247431287848e-06  1.7800406026542763e-11  1.1907747623319989e-04  1.4385735197009345e-04  3.5849716680239950e-05  5.4543784563362136e-05  6.9744690174873905e-04  1.2706977702835317e-06  2.5215164791235929e-03  2.8247131595135368e-10  2.7621341226757824e-04  2.2003590225419317e-10  3.2230273108975441e-03  8.1823376207816188e-04  3.5662217227427217e-04  2.5812235048925927e-03  3.7565693619127545e-05  1.5534086817678848e-04  1.2985634742245422e-05  3.8549806213032786e-04  4.4843534937911246e-04  4.3945804253939947e-03  8.2485651598337575e-11  1.9503685672873137e-05  7.2509407045013891e-04  3.4819581187695756e-03  1.1480479668826999e-08  2.2167046948011271e-05  1.2419890457298288e-08  2.0636090964999290e-05  2.2434666806017905e-05  2.5047793237405609e-04  1.0306526069245061e-03  2.7311824955240679e-03  1.9555850089650513e-04  1.3339362935693585e-03  1.8112952772921007e-07  8.8210383679835890e-08  3.2147924887294177e-11  2.3377842754232769e-03  3.0336332503038228e-03  8.5831032977711451e-04  4.3449620222479191e-04  4.6845879163425619e-04  5.3890169530131030e-05  2.7983422122732637e-03  4.4076093155924170e-11  2.9682327667091659e-06  1.5644535432423384e-03  9.9382190599552598e-04  2.6355630789214153e-08  6.8851876471934752e-05  7.8032554493344064e-10  6.0247132668893915e-12  7.8466792946412282e-12  3.4211210428094832e-11  2.7771680118787072e-03  3.7556379590352289e-03  2.1783818247329006e-07  8.2428732559254758e-08  3.8869207270246151e-10  4.2446893137716877e-03  4.3339773961662994e-05  4.1149387598656445e-04  8.8370549513238125e-06  1.6483648957923205e-06  6.6324259851621492e-07  1.0368359927390990e-04  2.3161222826352331e-07  2.7811724010920054e-07  9.7227379631856722e-05  1.3427581928919838e-04  7.4557905941858065e-12  3.2593331652284070e-12  4.3864041942581212e-06  3.6721500990643139e-03  1.1809958552670577e-04  1.6242965606088455e-03  2.0218607762624769e-03  1.1819133299575223e-06  4.5718058600079073e-08  1.5926259185357037e-08  2.9761686536720055e-06  6.1766422707748232e-10  1.1596504832544082e-03  3.2649250540709848e-03  4.3631792208187587e-09  1.0560079892096266e-03  9.4278504944564722e-08  1.8207197583664873e-07  2.1029433821221459e-03  4.3697135649117102e-03  6.2790705334650366e-06  2.3173802174629924e-10  1.0799617211211259e-04  5.5024717211097302e-06  4.4263863703053650e-05  9.0485129052625749e-11  1.6292635522968045e-05  5.0854892697453592e-03  9.7050912238232263e-04  2.4748348808398889e-03  2.2134072623689419e-06  6.7213081944511805e-04  5.9692186696343705e-05  7.9890477215727881e-05  1.6939323435909268e-03  8.4027754645565162e-04  1.0928908972510569e-03  4.4284382650394330e-04  6.7901540927056757e-04  2.2386154180535929e-04  1.6743863111753858e-11  4.3704602694510374e-05  6.3471781079042042e-10  4.9592324526951054e-04  1.0292248836289256e-09  1.2582280181246541e-08  3.0815880814562573e-09  3.8936359299500830e-09  1.2397159505044642e-05  3.6622142510560070e-07  5.5708175899248474e-07  1.1973261131785225e-06  6.7778350950727160e-04  3.2327077473113489e-04  4.9696355666999182e-05  5.7740256178583868e-06  7.4365292998427673e-11  4.8662975393032527e-05  2.4396262614350601e-03  3.1917859803724184e-04  1.9649085370771576e-05  4.4059119945174374e-03  3.8517404481524660e-05  9.4388394830365375e-08  3.5018231286531244e-03  1.4410648237587822e-04  1.4108167240359029e-04  1.6313243440059230e-05  1.1478943256844808e-04  2.7899283223368804e-04  2.8748204255167704e-03  3.1297263157981114e-10  1.6302012182586402e-05  1.1458970353454121e-05  9.1142242434256585e-06  7.6232537165275954e-06  8.8113574818958249e-06  2.2365166988838332e-03  2.2476832798385281e-03  3.6039310936809513e-03  2.3173248954990598e-03  3.6307385682033178e-03  2.4119795253715098e-04  1.0708290214592709e-03  1.3872058825193558e-04  2.3350955271920606e-05  5.7956539512539242e-06  1.8852387395114057e-07  1.8146561818067878e-04  2.8420232724260499e-07  2.0272444902972965e-04  8.7097841562573544e-05  6.7876356725696561e-05  1.0978921416139906e-03  6.8056155732904920e-07  1.1791032536550778e-04  1.6808672605400129e-09  1.9635393825719358e-03  2.3196142334510172e-05  5.2505292463915043e-04  3.3143856880791118e-04  1.8647901616623932e-03  2.2195365392283897e-05  1.0482521750764778e-06  3.3374157195353173e-07  1.8781615231991224e-04  3.1932656784668806e-03  1.6756690603044984e-04  3.1477518846400568e-04  9.2449377122034776e-04  3.0663596414856860e-07  3.1173207889685769e-06  1.3518945244587134e-06  3.1584922453219838e-03  1.3814928585859722e-08  2.0197781979118540e-04  1.5786269760584524e-10  3.9219532597056762e-10  1.6338168734783621e-04  2.0520979057973084e-03  3.5919069074332243e-11  4.3973295729643979e-11  1.4586274630748911e-11  4.3838042222794850e-08  6.4056393625763428e-06  9.4664896147980747e-04  1.5283959932954996e-03  1.3032265111009164e-03  4.0508619348063862e-03  4.8055102558322708e-05  1.2734976488077614e-04  2.0948549322872766e-03  2.4842348340013759e-03  2.7289782053898839e-03  3.0464618893068698e-03  1.2777391717625384e-11  4.2647595612723166e-11  1.5273947278031763e-03  2.2201061202280287e-09  1.1760943904228627e-11  6.2358025286884142e-04  3.1350133255234937e-04  1.1975830572135688e-03  2.1823119128529002e-08  6.9531581573820199e-08  9.2949360049752647e-04  4.7783428544653618e-03  1.3818515108066385e-05  2.3309616387044616e-03  2.0867046898566128e-03  4.1813243715157019e-04  2.3661954407481864e-03  6.6863904829397768e-05  5.6112479510807004e-05  2.2031504001118763e-05  9.7040063697803616e-06  1.1372298395953062e-05  1.7630362497978149e-04  3.4531718879030778e-05  4.5538240745390587e-11  3.4882908796918785e-05  9.1306238700006981e-05  4.4743324762422245e-05  1.6526507682418667e-03  3.2593586572693084e-03  4.7093887428873915e-03  4.8127786865522675e-03  7.5657559593848606e-05  2.5067365420362110e-04  1.2402095715541208e-04  1.0362144584323400e-04  2.3945610839999344e-08  2.7087169322886873e-04  8.5981827981518246e-04  4.1719484567007831e-03  3.3808278913029254e-03  3.6462620720217409e-03  1.5280210303716593e-05  6.3325621466461331e-08  1.0453093793048708e-09  4.4200745661389559e-10  1.3626285586374487e-09  1.9562875278830660e-05  7.9188931919070235e-05  5.1716758552991851e-04  4.5797784905506622e-03  6.2188589326210548e-05  9.6449590459333557e-04  3.2113731607955387e-12  1.9221898003056997e-11  5.6315780176392001e-04  2.4769157314360160e-05  1.8431708028624648e-06  1.8148234742527078e-08  7.7895637081426756e-05  6.2195034536131132e-08  7.0606628119065476e-05  4.4174000738113618e-06  3.7691393473464289e-03  1.4292932866569700e-12  2.1043721227129116e-03  9.9702317874261627e-06  4.6847337110535632e-03  1.2090374124439595e-05  2.3730148780116596e-03  7.6156091040478874e-06  4.8495603109477547e-03  4.9825205798703284e-06  4.1113948923203253e-03  3.3012048375657041e-03  4.9099869665776199e-03  3.0024844470328503e-05  1.7915987421786280e-05  4.3567350830564511e-03  4.5391067715331770e-03  4.7602230479435121e-05  1.4937849448215211e-03  2.9588803608049700e-04  8.6676238632166662e-07  6.0145502125932050e-10  1.4230401443365899e-04  1.1264220271868534e-10  2.1543126408344759e-10  6.2281324635898601e-08  6.5776642205063654e-10  3.3571139751485111e-03  3.5746983263527741e-05  5.5796743233441852e-04  4.2329043879305714e-03  7.6632617836638669e-05  7.3347797415201498e-05  1.1484725132245804e-04  2.8522412394699561e-06  5.2757631563797623e-06  3.3308680305125916e-09  5.8629323127071816e-05  8.1852717551145226e-06  5.1972097048998781e-06  3.3152511550021379e-07  4.4317619226440533e-09  4.0077460953392706e-07  4.5755330631425378e-03  1.1353087702073879e-03  3.9160198057281184e-08  6.4094172717321256e-07  1.2368030302478846e-04  2.2283019357580902e-09  2.0938706177882230e-06  3.5588675265308512e-04  3.6608740297404364e-04  1.2235935834675925e-04  5.1319901856035131e-05  4.5775197048352124e-05  1.7032657159817685e-06  5.1599570346018886e-05  8.9883014938025114e-11  9.3318072791885326e-11  1.5165155918094024e-03  7.2421855228044541e-05  8.1924566882220145e-05  3.9198322478733725e-05  6.4120097294471988e-05  4.7382163172024561e-09  6.4674535262450503e-09  6.4946083174880316e-06  4.2651066266315287e-11  5.9731319450460688e-03  4.2289059270610743e-04  5.6942829710192441e-04  9.9066311317382071e-04  1.8219234709190128e-10  1.0431893862529563e-08  7.9229139027215236e-04  1.2393392140219597e-08  2.3022092342616154e-07  2.3709380744487972e-08  1.7889561032292031e-09  9.5949898032923460e-12  4.1199576732754541e-03  1.5745454304619034e-03  5.1056917764236824e-06  2.8844935236179417e-03  2.3879169069648671e-04  3.8800754311447002e-06  1.2700861598740273e-06  2.2288773765840606e-03  1.1703668756085756e-09  4.4152072342964316e-04  7.3723477789613032e-07  6.0391520354811988e-04  3.4080452338873957e-03  4.4954467017683623e-03  3.0886592913770411e-03  4.6580243877223825e-07  8.7682927342518503e-04  8.3951327201326881e-06  4.9038118641231507e-03  1.1628804668524249e-04  1.9728886908144962e-03  3.9067669623347604e-03  1.3898681731782500e-03  2.3654861858445197e-09  3.1121480474442841e-04  1.1588775147643342e-09  3.2906998925628418e-04  2.2892955830636054e-03  2.9514905790240158e-06  4.7771756463106205e-08  1.2941551684042352e-03  1.1127675149089460e-04  7.2333105793516485e-05  1.3187891644521142e-07  4.2384944499122678e-03  1.8051579663371496e-04  1.6132830340772556e-04  3.4685251297237311e-04  9.7795140099801349e-07  1.8692104612314850e-05  4.7679796845376940e-08  1.9212833515540854e-08  8.7637383701393870e-11  8.9271661694956399e-06  2.4477659578219759e-10  4.7581945759788503e-04  5.3977298753068396e-04  8.0668395801062167e-06  7.9055045062566823e-09  4.8695942884458208e-05  2.5199129705531614e-05  3.8975790618686539e-05  1.6978627222312436e-06  4.9303607070073354e-03  1.0662361010331560e-05  1.6768939963357718e-04  1.3615284246197187e-09  5.5669800833621887e-04  1.3426977623118972e-05  2.4228694392660064e-05  2.7973857939345603e-04  4.5597162994357029e-09  1.2165632645559853e-04  4.7553330580060393e-05  9.0256401664297076e-05  4.8167412315372454e-03  5.5046299101311552e-11  3.7042078693175126e-04  2.4419187455215893e-08  2.2345404430186761e-04  1.8787560400615072e-06  7.6758385310725618e-09  6.1337082383414110e-12  3.2617893796045691e-04  4.0696197926605284e-03  8.2132267633752123e-04  6.1260549294503473e-04  2.1254211089804208e-03  7.6734436330697621e-07  1.9816741612125933e-03  9.8992854548820884e-12  6.2936667517809802e-04  1.2691660601000170e-10  1.7151085994493824e-03  1.0450952980014781e-05  1.7270369116082364e-05  6.8274074146987279e-09  5.0179929813889349e-04  4.7296808368420605e-05  2.0721053464386950e-05  1.0317644303920447e-05  1.1748133366940514e-05  2.1786717888722692e-05  5.6461338517537166e-09  3.2544859304511589e-03  3.7178685656730063e-03  2.0384199674585346e-04  1.6680622778240020e-03  1.5192820510043716e-03  3.5052404662148492e-05  2.5743578460212220e-05  2.0018133780367497e-04  9.0669130497210307e-04  1.3608162938352061e-08  5.6073198007661976e-04  7.8928853876375905e-04  4.5681736470873184e-04  1.9351338921534217e-04  6.9239485939857824e-12  2.2320168744921136e-05  1.0873341669417430e-04  1.1039103640288339e-04  1.5289468884867506e-04  2.4432843184570965e-05  8.3696389892296420e-05  2.2261706234150044e-07  7.5943193951367169e-04  1.6836857194536700e-04  4.0534457177616333e-03  2.6440784001627816e-03  1.1626914165303760e-10  1.2596230980881711e-03  1.1637518194621210e-03  4.3054356679705572e-03  1.9739214630366098e-05  6.0703026245228283e-07  4.3926479609713645e-03  2.7450390192460812e-03  3.1633427323306258e-03  4.4012665882845305e-03  6.0250620123663534e-05  1.7536551226757462e-08  1.3560547907925569e-11  2.5959578321689686e-11  6.5067036919015349e-12  2.2337078613605835e-05  1.2955498882117182e-08  4.7007867424980714e-10  1.2074050111681102e-03  1.3345393202089813e-04  1.1683007693885441e-07  5.5514565321880039e-08  3.4518309318202690e-06  1.8022231649660069e-03  5.5740274243334313e-04  6.6135484377337773e-04  4.5798366604008142e-03  1.0428811520008862e-04  7.2615490799657380e-05  2.6451313984827464e-04  1.7210087254649126e-04  5.4406503358050702e-04  1.8503311708033868e-05  3.3262722917390048e-05  2.0510905846233442e-04  3.4477652830838699e-03  5.2567401216041055e-03  1.2627130198325763e-03  6.8712472026886245e-06  4.9587639475709615e-03  8.3559947404319935e-04  1.0183233742797748e-05  2.5068360513849303e-03  7.0010237361918293e-12  9.1568160185397825e-05  5.2261815590051631e-05  1.4065874924936421e-06  5.9909382504604996e-07  5.7057609572164351e-05  5.3491153997761451e-09  1.5703451858318952e-05  5.5449989910972544e-04  1.0201250112436153e-05  1.2974305210648513e-05  5.2483897891429402e-03  6.5873510505220804e-03  3.5798271934375948e-09  8.5034384514465098e-11  2.2335416799586694e-04  7.0246034042165157e-06  2.9631058894631374e-06  3.2928305904407373e-06  2.9414942523156822e-05  4.8890323355026090e-04  2.2256168961515001e-06  4.8613359328941776e-08  2.8591780402405439e-05  2.4936554836646368e-08  3.4647457784877946e-09  1.6520013158194134e-09  2.7749400033292636e-05  3.0472421296358328e-03  7.8040082780229784e-08  1.9186611448446626e-03  1.6877140607762516e-07  4.8898465381605850e-05  1.4980943469136857e-05  1.9680783412058997e-03  4.4939740654533246e-03  1.4616456799226517e-08  4.8935359406720681e-03  7.3734943779404084e-05  1.6677876227065012e-03  2.1634198199968461e-04  4.8004813779773391e-07  4.1691381329872