<?xml version="1.0"?>
<VTKFile type="UnstructuredGrid"  version="0.1"  >
<UnstructuredGrid>
<Piece  NumberOfPoints="2446" NumberOfCells="4585">
<Points>
<DataArray  type="Float64"  NumberOfComponents="3"  format="ascii">0 0.41 0  0 0 0  2.2 0 0  2.2 0.41 0  0.2404508497187474 0.2293892626146237 0  0.25 0.2 0  0.2404508497187474 0.1706107373853764 0  0.2154508497187474 0.1524471741852423 0  0.1845491502812526 0.1524471741852423 0  0.1595491502812526 0.1706107373853764 0  0.15 0.2 0  0.1595491502812526 0.2293892626146237 0  0.1845491502812527 0.2475528258147577 0  0.2154508497187474 0.2475528258147577 0  1.1 0 0  1.1 0.41 0  0 0.205 0  0.55 0 0  0.55 0.41 0  0.275 0 0  0.275 0.41 0  1.65 0.41 0  1.65 0 0  0.8250000000000001 0.41 0  0.8250000000000001 0 0  1.375 0 0  1.375 0.41 0  1.925 0 0  1.925 0.41 0  1.5125 0.205 0  1.7875 0.205 0  0.6875 0.205 0  0.9625000000000001 0.205 0  1.2375 0.205 0  2.2 0.205 0  0.4687002074688797 0.2068568464730291 0  1.99375 0.2152743902439024 0  2.0625 0 0  2.0625 0.41 0  2.2 0.3075 0  0.4125 0 0  0.4125 0.41 0  1.7875 0.41 0  1.375 0.1486128048780488 0  1.5125 0 0  1.7875 0 0  1.5125 0.41 0  0.8250000000000001 0.2613871951219511 0  0.9625000000000001 0.41 0  0.9625000000000001 0 0  0.6875 0.41 0  0.6875 0 0  0.1375 0 0  0.1375 0.41 0  1.2375 0 0  1.1 0.1486128048780487 0  1.2375 0.41 0  1.65 0.1486128048780487 0  1.126715909090909 0.2793064024390244 0  1.676715909090909 0.2793064024390244 0  0.8517159090909092 0.1306935975609756 0  1.348284090909091 0.2793064024390244 0  0.34375 0.3032389320646208 0  1.894702181800738 0.1282910975492754 0  2.092797818199262 0.1282910975492754 0  1.85625 0.3075 0  0.61875 0.3075 0  0.61875 0.1025 0  0.3648540804333487 0.1240075933101478 0  0 0.3075 0  0 0.1025 0  2.099172119769978 0.25625 0  0.48125 0.09238439620688085 0  0.5781001037344399 0.2059284232365146 0  0.48125 0.3196743479159776 0  0.7265881057911006 0.3055240343720796 0  1.99375 0.08395950269330846 0  1.459960956013612 0.3075 0  1.569025960719943 0.2986889805672169 0  0.75625 0.08213100772579164 0  1.03125 0.3278689922742084 0  0.923871252904788 0.3078247185783941 0  1.959375 0.3126371951219512 0  1.749222215368287 0.1025 0  1.275777784631713 0.1025 0  2.2 0.1025 0  1.225938124459196 0.3075 0  1.550777784631713 0.1025 0  1.000777784631713 0.1025 0  1.44375 0.07430640243902442 0  1.16875 0.07430640243902437 0  1.899250267340833 0.2229966846119207 0  0.1020898364287272 0.3140258291809757 0  1.766482954545455 0.2934032012195123 0  0.3405058858996321 0.2119987970531874 0  0.7710785630958338 0.1710968191298857 0  1.046078563095834 0.2389031808701144 0  0.2 0.3400647632937836 0  1.421109702350723 0.2261157654379721 0  0.2800464974185557 0.08982544815605742 0  0.098916018031319 0.09171660955420841 0  2.13125 0 0  2.118919042110979 0.3422084711244843 0  1.30625 0.41 0  0.89375 0 0  1.597888256393107 0.2173787389261347 0  0.20625 0 0  1.829299675393195 0.07400700849299596 0  1.71875 0.41 0  1.16875 0.41 0  2.038220665644273 0.332420740103091 0  0.34375 0 0  0.417496017710808 0.2696595573092803 0  0.2 0.07687845740457822 0  0.9295982307099278 0.1343158415898188 0  0.07390688010811153 0.1697064032433452 0  0.5238366813727013 0.2578302467013575 0  0.05452951551825875 0.25625 0  0.5229630068078351 0.1548816096928243 0  1.452769549894695 0.1548122580621249 0  1.369219062229598 0.07430640243902442 0  1.30625 0 0  0.8504409521244898 0.3356935975609756 0  0.8821881244591965 0.205 0  1.720943423819132 0.1714577452753128 0  1.157188124459196 0.205 0  1.094219062229598 0.07430640243902437 0  1.03125 0 0  1.304056576180868 0.1714577452753128 0  1.67579304192913 0.07430640243902437 0  0.2751941921308361 0.3346083473122598 0  1.209670467133757 0.1362100266964769 0  1.025335513626278 0.1700681449722324 0  0.7562500000000001 0.41 0  1.58125 0 0  0.7567170593862014 0.2409196493502535 0  0.6926714215682891 0.1272249611432207 0  0.4139715849905988 0.3397932387114203 0  0.9840787304190477 0.2717749043358119 0  0.06875000000000001 0.41 0  0 0.35875 0  0.9281250000000001 0.06276726142697993 0  0.5507396469029935 0.3219409231578227 0  0.5504468037989405 0.09136885600634273 0  1.58125 0.41 0  1.631724228912893 0.3381867502687533 0  1.825608881788174 0.14499488549201 0  1.85625 0 0  1.44375 0 0  1.44375 0.41 0  1.85625 0.41 0  2.13125 0.41 0  0.7562500000000001 0 0  0.89375 0.41 0  0.4812500000000001 0 0  0.34375 0.41 0  0.4812500000000001 0.41 0  0.20625 0.41 0  0.06875000000000001 0 0  1.16875 0 0  0.61875 0 0  0.61875 0.41 0  1.03125 0.41 0  1.71875 0 0  1.99375 0 0  1.99375 0.41 0  1.340625 0.3489494290853124 0  1.134375 0.3489494290853123 0  1.700180620188976 0.3438659752031281 0  2.135782184673599 0.07126652247502523 0  1.668441847249787 0.2129203728327609 0  1.295782514339747 0.2378437748815763 0  0.8233075729931248 0.06842334294821524 0  1.409375 0.3520314716057996 0  0.403505597322782 0.182067236678212 0  0.378125 0.05794951541303489 0  0.3043468223249023 0.1518321115979534 0  2.129248544730567 0.1906135162504124 0  2.060771381434487 0.1989445750470348 0  2.013252586573865 0.1496169464686054 0  1.942766402200229 0.1734448904596831 0  1.895522487186454 0.06076163953489683 0  2.069553871656643 0.06605731020975725 0  1.274680914880868 0.3520219391081363 0  1.614713220494657 0.09473434380863296 0  0.7899021319497519 0.3149123934144827 0  0.69518737419149 0.0634051089053758 0  0.2971740475496061 0.2592172353407536 0  1.72990325744076 0.2380068107952482 0  1.356580098625191 0.2120393231351682 0  2.034370752044885 0.2668681600792073 0  1.51768709249349 0.3426260931494756 0  1.561883724969884 0.1650446847858835 0  1.197344062229598 0.2523725417393646 0  1.804085235518364 0.3468178408964637 0  1.817887819205233 0.2589243285818559 0  1.905897727272727 0.3485060975609756 0  0.6719798073392919 0.2688965171178177 0  0 0.05125 0  0.653125 0.35875 0  0.6396896119294488 0.1627615407790282 0  0.4274150154087412 0.1242548552168279 0  1.192836486056382 0.3562350748565544 0  0.8279124365364005 0.183856489168822 0  1.097485222388854 0.2083571153401724 0  1.28257088594801 0.2944411014911587 0  1.474860187679412 0.2504218616229368 0  1.406767003493824 0.2829282258560709 0  0.446875 0.04619219810344041 0  0.515625 0.04585361801037557 0  0.592043440706648 0.05125 0  1.845656689180403 0.1998310418452388 0  2.144958525570388 0.2909790873294231 0  0.6171090763650112 0.2492366900333857 0  2.2 0.15375 0  0.5145586920831158 0.3648371739579888 0  1.57794966442982 0.3540357145964566 0  0.721875 0.3633107922168974 0  0.0496154796471391 0.333125 0  0.5843750000000001 0.3662560860076676 0  0.5810878747760798 0.1474002776121195 0  1.508991196088596 0.1421783375065625 0  0.8840670607017558 0.2640994375393898 0  0.09776612425612034 0.2204896805326566 0  1.50436820029908 0.06143401634903343 0  1.223857000523521 0.0823554862453532 0  1.153316824384777 0.1289850171317837 0  2.148922302309752 0.1258841779285271 0  0.309375 0.04312325590431198 0  1.621993280276081 0.2841214267927899 0  1.550118654119087 0.2461998729100966 0  1.327182649291491 0.1216967252533594 0  1.051977450479407 0.1221382572915816 0  1.753125 0.04556020050186112 0  1.271875 0.04556020050186116 0  0.9816084133102366 0.05126138213476004 0  1.039051841454368 0.0572224914831029 0  0.9719230514536006 0.3480477870845102 0  1.94956388244759 0.1180512551534177 0  1.949997712993411 0.04965831614304109 0  1.771961817615021 0.1530278789497521 0  1.909246823951428 0.2812757146784527 0  0.2459536687882397 0.04668633953831142 0  1.948575539857022 0.2445328248721197 0  1.697271520964565 0.1233917627620729 0  0.7964897648514618 0.1211426571931604 0  1.065625 0.3689344961371042 0  1.085849084308977 0.3170853572226867 0  0.4702981435440001 0.260434880697798 0  1.577403511714593 0.05463601888079143 0  0.05622663515370135 0.05493816910862376 0  0.3267207591099919 0.3566194660323104 0  0.9003051618565143 0.3564049499960621 0  1.751571320346033 0.3651102912045228 0  0.1583785085108421 0.2994699345738728 0  0.1455283439499995 0.3542795598723423 0  2.2 0.35875 0  0.2347662494194072 0.298325008655211 0  0.1527284455616188 0.1065771775690181 0  0.1382139529076665 0.05427454456341477 0  0.8749341636311069 0.05110114999892954 0  0.643661668713109 0.05693499781019222 0  1.466879772203159 0.3611261772912453 0  1.990280163552011 0.3564754268533217 0  1.17471064520912 0.2990917256188288 0  0.5202693090594349 0.206382495511728 0  0 0.25625 0  2.2 0.25625 0  2.2 0.05125 0  0 0.15375 0  1.853978576207987 0.35875 0  0.9787513713939683 0.1487523696999336 0  0.240625 0.3722153812029779 0  1.515638456102889 0.2882700110184686 0  0.09048297387599738 0.3637717362208066 0  2.150453692751374 0.2387066338105111 0  1.323782677156475 0.04897634338873398 0  0.8074131292871642 0.3624701995505916 0  1.409375 0.03715320121951221 0  1.406484531114799 0.1087852750766809 0  1.134375 0.03715320121951218 0  1.627401732573545 0.04552157221025036 0  0.1170173172005315 0.1427610859166811 0  2.045405893604797 0.1105340662939892 0  1.255408269734577 0.1577307500159216 0  2.028125 0.03707597992059326 0  0.4743610090857199 0.1421513964721819 0  0.9354010469015898 0.250631300585664 0  0.04420832937638274 0.128125 0  0.8922386349349938 0.0992956419364831 0  0.1197849154434487 0.2663398672460083 0  1.248258025468107 0.2565907092181813 0  0.3746885856929528 0.370723531618974 0  1.203125 0.0366132337404304 0  0.5724622277005015 0.2751253816079333 0  0.3365425205162783 0.08395777655057959 0  2.072662025974815 0.2975086504196739 0  0.4581080832182547 0.3648371739579888 0  0.3874522734668214 0.2295447548840689 0  0.7827853612484443 0.04106550386289586 0  1.887722846421017 0.1760882698830035 0  1.472640588990488 0.1118278026240017 0  1.865937103925594 0.2604137786483804 0  1.463913572748262 0.2030442564990043 0  1.376426316059077 0.3186741374914345 0  0.6641993820150034 0.3141688596240831 0  0.2943117490824315 0.2130987422685822 0  0.3478153998082709 0.1666571081082676 0  0.3427990510599805 0.2575950027870776 0  0.7997118993855807 0.2216171933356366 0  
[...]
<PointData  Scalars="f_10-1"> 
<DataArray  type="Float64"  Name="f_10-1"  format="ascii">9.6151374426450365e-04  3.8025941161268847e-04  1.2759645360220532e-03  2.8377619577456921e-03  2.4074020421753308e-03  1.7839940126562191e-03  1.0514392887533465e-03  6.2670504057800685e-04  5.7752789342998970e-04  6.2320592785748610e-04  7.2163345810562403e-04  1.0564990368229805e-03  1.7677093566799158e-03  2.3793046692418287e-03  7.3203103902118999e-04  3.7937306261830082e-03  6.0905071166402446e-04  4.1902700376093062e-04  4.4255034304446252e-03  4.0336208271118658e-04  4.3506763982088682e-03  3.2405601199432068e-03  1.0601599366547312e-03  4.1214578118444287e-03  5.4719077913222599e-04  9.0931756634280521e-04  3.4984197355090087e-03  1.1837323253671365e-03  3.0193583216582580e-03  2.1679359226028615e-03  2.1280291603119434e-03  2.2356345617616765e-03  2.2293202649955753e-03  2.2028451621718312e-03  2.0663763149518922e-03  2.2438460643529495e-03  2.1701123484931203e-03  1.2370872034455315e-03  2.9188868284142785e-03  2.6409686861082480e-03  4.0706598186853057e-04  4.5117235392259907e-03  3.1260702216026792e-03  1.6163070015539965e-03  9.8924594748024371e-04  1.1245299351229086e-03  3.3647887037835194e-03  3.1058637773315038e-03  3.9550223289321210e-03  6.3757914563030208e-04  4.2846473733805478e-03  4.6796176150407223e-04  3.8870331938733077e-04  2.7049635422445048e-03  8.2509767648266069e-04  1.5393541672086787e-03  3.6401227863063061e-03  1.6673602201346660e-03  3.0988560207464082e-03  2.7567302275070945e-03  1.2147693868724972e-03  2.9496961928330745e-03  4.2740893158591158e-03  1.5674329001480630e-03  1.5996983955278677e-03  2.8293981601905465e-03  3.9382117671459965e-03  7.3128667792859135e-04  5.6254781588616228e-04  8.0027030659834595e-04  4.4261491597585569e-04  2.4132728190400222e-03  5.2868696997297846e-04  2.2436172614045719e-03  4.2592247839828117e-03  3.7679541580542030e-03  1.3667506425084734e-03  3.0952489991983401e-03  2.9598483370014000e-03  7.1493212096663292e-04  3.6220578514809892e-03  3.5643113543119250e-03  2.7915914490300080e-03  1.3796467161154840e-03  1.1973353491986237e-03  1.4908297603495276e-03  3.2796833401950148e-03  1.3128482587254570e-03  1.0446768810039480e-03  1.1083681577645158e-03  9.5804755236447389e-04  2.2474278386626933e-03  4.8756913589443514e-03  2.8017105553816879e-03  2.3939319347684790e-03  1.6926089351683958e-03  2.6698685834050063e-03  5.3964668471072124e-03  2.3969159047423942e-03  4.8050053422656828e-04  4.3929089492647402e-04  1.2594534385147215e-03  2.8051416139338544e-03  3.5672436442557741e-03  5.9119692125409015e-04  2.2693815307722755e-03  3.9791977858111884e-04  1.2747119142874140e-03  3.1817106644284757e-03  3.7159434144236900e-03  2.8239358402842750e-03  4.0634473067250411e-04  3.7706065587713696e-03  4.6247331118073643e-04  1.3046602252805909e-03  5.4445959026885285e-04  3.3734856527023872e-03  7.3606319811938745e-04  1.1847272572095661e-03  1.6883114245787620e-03  1.0711726826508575e-03  8.6554344608233229e-04  3.8791347891544183e-03  2.2336297151789959e-03  1.8577132303714170e-03  2.2116579335787027e-03  9.1316767350851252e-04  6.8673660653544033e-04  1.8307833101216255e-03  1.2147514263523538e-03  4.7800985348589288e-03  1.4510888298827494e-03  1.7681890824444732e-03  4.2059590424818457e-03  1.0266324434246563e-03  2.8420142923555550e-03  1.0428525187093228e-03  4.4586048899745113e-03  3.1201426456984771e-03  1.3317024791551087e-03  8.8648995242474461e-04  7.4210428345855551e-04  4.1726414204761482e-03  5.8645726651745413e-04  3.3016182294611286e-03  3.1309584828838055e-03  1.6653618182678580e-03  1.1549722753319508e-03  9.4828657298655643e-04  3.4297511222119961e-03  3.0704128773140740e-03  2.8716508797144986e-03  5.0431179813464563e-04  4.0401315964648460e-03  4.0924316559248428e-04  4.4955899874317496e-03  4.4795178920647612e-03  3.8414495403317097e-03  3.8205450020439380e-04  7.8066392966224683e-04  4.3901387847631305e-04  4.3584380062034909e-03  3.8754945793983910e-03  1.0925389180339111e-03  1.2095623660021454e-03  2.9673532945136663e-03  3.4317142394184865e-03  3.6361026247025210e-03  3.1013255171992147e-03  1.3631508589151526e-03  2.2150382110211570e-03  2.5602138314430247e-03  6.9149438458828794e-04  3.3762945236794979e-03  1.5044514620207586e-03  4.3157109406787405e-04  7.4140142749660218e-04  1.9815875181403253e-03  2.0446535129369069e-03  1.7164272259207788e-03  1.8747193517571913e-03  1.2540868754821956e-03  1.3274579889230647e-03  3.5057605392097104e-03  1.2906365834857460e-03  3.7846515962009306e-03  5.7591673361376727e-04  3.2541220807205977e-03  2.4122229923611294e-03  2.2643646907554897e-03  2.5041143898086836e-03  3.2440748790479360e-03  1.7942051164511806e-03  2.7624319055385821e-03  3.0328970520054907e-03  2.5422593537358135e-03  2.9632410510876841e-03  3.3637813673303360e-03  3.9640403154563345e-04  4.2514213151757067e-03  1.4676367171681311e-03  6.3337696739108201e-04  3.6068928430215029e-03  1.9079550474363431e-03  2.2601823918869278e-03  3.1284284156310039e-03  2.6169942697032754e-03  2.9439693715333829e-03  4.2380705358999844e-04  4.3802828241678248e-04  4.7469625335531219e-04  2.0787491490769170e-03  2.5877311464833452e-03  3.0956174691970386e-03  1.7514232018251235e-03  4.4234832895080319e-03  3.2354905878144340e-03  4.1847043842790201e-03  1.1061427033587949e-03  4.3535315864109666e-03  1.1637153894403982e-03  1.5890774868544534e-03  3.0947414542320415e-03  7.3879294293179574e-04  1.0858453381945533e-03  1.0359726696741955e-03  1.3605196974254348e-03  1.5946239436922330e-03  4.2166267143408639e-04  2.8230813075596282e-03  2.5473238187649337e-03  1.3659603282643164e-03  1.2466920554828802e-03  1.1526429823228714e-03  9.0127345656662279e-04  7.2937468681173604e-04  7.9393909936777520e-04  3.8113215550274124e-03  1.5183107391355665e-03  1.2420857423494362e-03  1.7165140613110597e-03  2.6496383768172789e-03  4.2501298300575113e-04  2.3895345259664570e-03  1.4934628606296037e-03  1.0726565396642709e-03  3.7895341418853852e-03  3.4826610475632708e-03  3.5126898618804510e-03  1.0993895663635996e-03  4.0008261681154548e-04  4.6017370423130765e-03  3.9392748009189175e-03  3.1228064010188641e-03  5.6795463195794460e-03  4.7452140555933999e-03  2.7991109833217682e-03  4.0757452117644406e-03  4.8409846963449544e-04  4.1483597820058792e-04  6.5344411361834421e-04  5.1675468413390601e-04  3.3550750598411684e-03  2.9256116629395985e-03  3.2531941592037501e-03  2.2439304121706465e-03  7.2239765448708177e-04  2.3808132546279661e-03  1.3252586300990085e-03  5.1426942882816366e-04  3.0278628833259745e-03  1.4930364752802517e-03  4.5410230913189046e-03  2.9175102127094181e-03  2.0072528282867714e-03  2.2878394017874868e-03  9.4242774383049895e-04  4.0763797486279328e-03  9.6360345098298300e-04  1.2976194919519916e-03  7.9118578294351679e-04  1.0970298348986992e-03  5.1796613135179036e-04  1.4978949049321479e-03  1.6792385479021895e-03  1.2475233453750345e-03  9.0153007396118114e-04  2.8791925434462850e-03  4.7722404460383587e-04  9.4372869268780687e-04  3.7189997944295262e-03  2.7827007093686029e-03  4.5372157640032138e-03  8.3703752151275204e-04  3.5971521647072844e-03  4.6334793620183044e-04  2.6560351286041613e-03  4.4737742563690777e-03  2.9157549180755396e-03  5.6188865010492180e-04  1.8941936377532562e-03  1.3447979403939428e-03  2.5328580107666595e-03  2.1549129922828494e-03  3.2361995513928406e-03  3.9423618398083914e-03  2.2865288607607317e-03  9.4481973011148923e-04  3.5445808491682729e-03  2.5078796623648749e-03  2.7583742294118399e-03  2.4783251467371914e-03  1.2741958303069754e-03  1.6179754916832104e-03  1.0665664889349823e-03  2.5599767661413091e-03  3.2010366089612191e-03  2.8287919007305607e-03  2.0163812827556694e-03  6.1358323529468197e-04  2.9432155859883116e-03  1.5993546647231035e-03  2.3142560294283358e-03  2.9322572527510551e-03  2.8324787750035568e-03  6.1702136880113431e-04  2.4769332091565039e-03  2.7480243036426505e-03  2.8947974980029845e-03  2.8817344750374741e-03  3.9279941395406465e-04  5.3174971556766652e-04  3.2706033824401837e-03  1.4530010131493418e-03  2.7117157568632912e-03  3.9358028445437486e-04  2.6181919585100536e-03  1.9277625008206672e-03  9.6871089428810972e-04  2.0052824898702968e-03  3.3321138170305134e-03  4.0817243132192258e-03  1.0763342779064723e-03  1.1297800361472726e-03  3.9139052138711565e-03  3.8504703755125108e-03  1.2871032298136420e-03  2.8428137424892723e-03  1.0333073629319872e-03  7.1733315304665717e-04  4.1457030187242120e-03  1.8847458986097716e-03  1.6063916212737700e-03  2.4765887650657612e-03  1.1682191252232333e-03  1.3734360103795733e-03  1.0075222966103130e-03  2.9805896967388477e-03  2.5152639053888136e-03  5.2367505645444022e-04  3.0984535139472443e-03  7.4945268422705799e-04  2.9836486779760544e-03  3.1991013584137034e-03  9.1016098845823337e-04  4.6305912534081269e-04  3.3794395051188904e-03  1.7377250959425446e-03  3.9959652549290759e-03  2.1644654156633123e-03  3.6017758844735927e-03  1.8455423723179694e-03  1.0012537427871299e-03  4.1057201288791675e-04  1.8651199056943792e-03  1.3531365316179099e-03  2.6330373656677057e-03  3.3048635815202442e-03  4.2505978137568710e-03  4.2130753265210924e-03  2.1849394840341104e-03  1.0531556482489878e-03  2.7039691855359404e-03  2.6110759425882579e-03  1.7663386924444821e-03  5.7752649267338286e-04  1.8169644015596014e-03  3.2331237322828191e-03  1.2459737471816291e-03  3.4906381310356007e-03  3.0445124563858064e-03  1.1910162952721134e-03  1.1700097998200521e-03  1.3450002023115736e-03  1.2847169885098963e-03  1.2872214652352911e-03  1.0962323819351154e-03  1.3832590711830976e-03  3.8070171422634392e-04  3.7158540993472377e-03  4.2077188014571784e-03  9.5203034176076561e-04  2.9201042959419734e-03  1.6128244579199248e-03  1.5466105014420328e-03  3.5368796716706372e-03  2.1806475083467006e-03  4.3976016123376595e-04  4.6764340250500516e-03  1.2669789680094189e-03  7.7512982090780468e-04  3.9437346713439431e-03  4.1345035281378489e-03  1.8780747867003168e-03  5.3410788748862786e-04  2.9080948714955935e-03  8.6069259008144056e-04  1.3433767538967565e-03  2.8341769275184816e-03  4.5557550727945749e-03  4.2606849363725488e-03  2.6025923640041779e-03  4.4473594356323988e-03  1.6946494642475101e-03  1.5967002824748659e-03  7.3615519520251523e-04  1.6007856612556982e-03  5.4374673817710604e-04  3.8823504221955100e-03  2.7783826393160929e-03  4.0360298442262557e-03  7.3654736004577666e-04  1.0226849883018564e-03  2.1071616855207211e-03  2.1632739870589535e-03  1.5869960260633423e-03  1.4760421450860349e-03  1.3045296180993432e-03  9.3297247809401643e-04  1.1772639011854845e-03  1.7536838174248672e-03  1.6918074998883406e-03  1.7093021453124114e-03  4.9020848081044322e-04  4.5276990836151223e-03  1.1589723537072849e-03  1.3373844966254292e-03  4.3506174417821177e-04  5.0543483585607316e-03  3.0428909342510744e-03  3.0160878909116151e-03  3.7443196236058682e-03  5.2762474941707807e-04  3.0082691007080960e-03  4.1615256310011421e-04  2.8865902501299819e-03  3.2412404418851251e-03  1.9330586541890505e-03  3.3316266580017003e-03  1.0308150784704799e-03  1.1397630711061629e-03  4.0115982814839498e-03  2.3159536168281276e-03  2.2704780669379771e-03  1.1048079699874896e-03  1.2197756478673051e-03  2.6073036809944839e-03  2.2075079850975522e-03  2.0662074910371255e-03  2.9900563937757534e-03  1.1264479899245658e-03  2.2417278957255313e-03  1.3714905856762811e-03  1.9259080500090343e-03  4.8266007965605659e-04  1.0859456327695191e-03  3.6895767628659557e-03  6.5829255876748518e-04  6.2955651921376018e-04  5.6844955782121907e-04  5.8695414436674652e-04  1.4461373220745278e-03  1.4827447156043410e-03  6.9732563017266475e-04  2.1248379477927545e-03  2.8756074123371948e-03  3.3856911658020137e-03  2.3468084617758829e-03  2.3868826483681169e-03  1.5671308932264487e-03  1.8655721788641631e-03  2.9684585983168602e-03  4.2522476162661885e-04  4.5106449906705311e-03  9.6630154338946139e-04  1.3617204266961850e-03  3.4385175629129310e-03  1.5006093445855411e-03  3.6970436268236365e-03  3.7541673556362497e-03  3.5349546471520068e-03  3.5346892888459152e-03  3.4648779761752464e-03  3.3977550362677884e-03  1.9762133976300514e-03  1.7141427587143490e-03  3.6789062150262282e-03  4.1631975206230668e-03  4.3661361266250304e-03  1.9021595918111821e-03  7.7237073116741305e-04  4.1723173643322864e-04  4.0643088056799292e-04  4.2757223178630501e-03  3.8962778110702848e-03  4.1727574521259192e-03  4.2183142477674011e-03  1.8169496261994545e-03  8.5496245272335513e-04  2.7067940112246547e-03  5.1894676155370470e-04  8.7549417516299380e-04  7.4450770685878488e-04  3.2000166939775746e-03  3.2118623415731415e-03  1.9151938141717512e-03  1.9309870542548256e-03  2.6023219230804397e-03  3.6050502977583217e-03  3.7557033204494708e-03  8.0852545685501805e-04  4.1988224156009262e-04  8.8835675530276670e-04  7.1070240452889228e-04  1.2699430558218393e-03  1.2474207903097325e-03  7.5697899416468466e-04  9.3058431978979722e-04  3.3968914716865127e-03  3.1537696319507255e-03  3.8340567707300611e-03  1.1104858425379325e-03  4.2453999071243491e-03  3.4644806088927858e-03  4.8587791097500898e-04  2.8490657039884192e-03  6.1611113052183425e-04  4.5139286795103928e-03  4.0719717513151691e-04  4.5000776940229007e-03  3.8477941155545787e-04  4.1643772900625013e-03  4.0035943126158328e-04  1.9195247092421495e-03  4.5172050308236523e-04  5.2490876669722679e-04  4.0521243530719915e-04  4.3939712757636584e-03  4.4548830811148169e-03  4.2718020297343568e-04  4.1228836483474311e-04  4.3245773274543150e-03  6.6433436077105370e-04  8.0148702508624388e-04  1.0431404643891327e-03  1.1962446383551742e-03  8.4544026268251662e-04  1.2234142671646460e-03  2.9938993212600281e-03  3.1655616139404544e-03  1.5123773864618613e-03  6.9938410342652239e-04  1.4107212532344200e-03  1.6726242988824335e-03  4.7835000892185381e-04  2.6047566508804625e-03  2.9114111257913817e-03  3.5099833481749905e-03  3.0848059254852947e-03  3.1265422605265365e-03  1.1915198574129402e-03  2.8410405315359120e-03  3.2853895720230341e-03  3.4346069704504515e-03  2.5695021221345225e-03  2.8399490489804257e-03  2.1595472809125596e-03  4.7309198405477487e-04  2.7713996044562892e-03  1.4426096550203644e-03  2.5056377842488887e-03  2.2088567753026415e-03  2.8025481930630271e-03  3.3689363953594278e-03  3.7252736431099163e-03  3.1930232012136479e-03  3.9157680205577214e-03  6.6290842828127885e-04  4.1931440716456332e-03  1.0511607864204691e-03  4.3316336236111815e-03  1.2547655592758807e-03  1.4365241691013245e-03  9.8624301225105166e-04  4.2674489594727799e-03  1.9214441450154352e-03  1.8627533457762490e-03  3.4534273441777876e-03  2.0794766095144396e-03  1.7479787408143615e-03  2.7294972207160713e-03  2.7862905620527367e-03  4.3493526692710852e-04  3.6663864724701947e-03  3.4656011081929221e-03  2.7262995764988571e-03  2.6826103716017400e-03  3.1017587557651510e-03  2.2882056263628693e-03  2.9578202296619322e-03  2.9143751521273978e-03  2.3497893524325377e-03  1.3433491500391794e-03  2.4505273480374011e-03  5.1636515648902656e-04  1.7782548312363200e-03  1.5179322527826098e-03  9.8553487447372080e-04  3.7832364047450948e-03  1.2420068441045117e-03  1.2107111061101814e-03  5.4630056682710164e-04  3.0251189843317266e-03  3.0110574422417373e-03  3.3071636518295254e-03  2.5819636738890085e-03  5.5610100036894200e-04  3.9955955311373137e-04  1.0753270398968888e-03  3.2760119807072100e-03  1.3004957061940605e-03  1.9287244817763826e-03  4.3515025302826688e-04  1.1636336112025225e-03  1.1880089055064020e-03  4.9169056618314174e-04  2.4767878127452407e-03  3.0514762507343712e-03  3.8425419891862812e-03  2.9074288648671567e-03  1.8558602754095250e-03  1.2551338440319980e-03  1.0299507870351935e-03  2.3017016988162325e-03  9.1514896370806589e-04  3.4036315021732559e-03  1.1834679879089377e-03  2.6105403839558365e-03  4.5783812289958614e-04  2.4556395861007768e-03  2.9904816447451636e-03  2.5547031320439515e-03  1.9396699938181358e-03  1.1095884404824547e-03  2.6886917154876492e-03  2.7036120283392227e-03  2.0618474250989668e-03  9.9730489014696359e-04  2.9768446796261520e-03  3.8443030548194069e-04  3.8700933507895786e-04  1.5977256743959971e-03  1.3702436916438389e-03  3.3498049174178076e-03  3.7283489803149861e-03  4.3866873496153534e-03  3.2216354344639406e-03  4.0542155407386632e-04  4.5611541304754061e-03  4.0093713785480318e-03  1.5299372913151583e-03  3.2747883910447546e-03  3.5151732316953087e-03  4.6261911500738283e-03  1.0159237718409806e-03  3.0805567321310528e-03  4.0080137794698103e-03  6.6631307895046582e-04  3.8754672463357925e-03  4.1251022789778186e-04  1.3384946250056685e-03  3.7398908351150440e-03  1.1830895771220056e-03  2.5952224244303263e-03  1.4986050967426528e-03  2.7035231847453434e-03  2.2271740404330429e-03  3.1527111186720261e-03  5.5244372977482868e-04  1.8836742712366591e-03  2.1206178697761565e-03  1.6084517233009611e-03  2.6967394226390653e-03  1.9314127657410203e-03  1.3460209112173553e-03  2.8675534211008782e-03  2.5036611197627825e-03  8.3501202565746475e-04  4.6314225767284676e-03  6.5193994848196449e-03  2.4727437368835506e-03  3.4225980268209606e-03  2.3252946580943844e-03  2.4360389520086145e-03  2.8829223993658299e-03  2.3942389337416395e-03  9.6640940945682836e-04  2.9413950192657889e-03  5.5253332539253433e-04  6.1553979733854482e-04  3.7413167156405257e-03  2.1871173170802281e-03  2.2298880525992481e-03  2.9023976568058655e-03  2.6933819514161181e-03  4.0022325721969466e-03  7.9515582464602798e-04  2.1061256075053034e-03  3.2607240896523216e-03  3.1668778054306473e-03  3.6023011655053234e-03  4.0344117248207224e-03  1.6112340652060324e-03  5.9579515378983018e-03  3.0979478302198709e-03  2.8422539771707834e-03  4.0393288654272923e-03  3.5821700663819971e-03  4.2168100140198214e-03  1.1954728405607655e-03  3.1251938092927748e-03  3.5271176365022010e-03  5.4821102049149180e-04  1.0919580592907996e-03  2.9522733550543362e-03  7.1137248441616077e-04  2.6672997964870084e-03  4.7543180288356910e-04  1.6273018782941588e-03  2.9769097850126415e-03  4.5890412177329820e-04  1.2438726319637765e-03  9.3279278998358299e-04  4.5670314104439847e-04  2.9737833222615688e-03  3.1367601361750666e-03  2.7163612369471815e-03  2.4419236292895553e-03  2.6345440679011287e-03  4.4372648749303554e-03  2.3252451675787765e-03  2.8325370834639766e-03  1.5633882509842785e-03  8.8356061126092711e-04  1.1101013153526004e-03  1.1294864093773691e-03  1.4027856580408405e-03  2.0905050322101229e-03  1.4056222724043090e-03  1.1387124652558085e-03  4.5316608389751124e-04  2.0389356497935458e-03  3.5151365824711693e-03  3.4706352295541341e-03  3.6592492303052508e-03  3.4612335151648819e-03  4.4667731358279446e-03  4.4112546526841592e-03  1.0119492268625674e-03  4.0923673162478788e-04  4.3219221485487361e-04  3.8741955362264969e-04  3.3396105653240252e-03  4.1086277254357811e-04  8.8183548132805801e-04  4.5059852290381501e-03  1.4610844412567994e-03  1.9053801486912227e-03  5.7588029625983261e-04  6.5814435773754384e-04  3.1199583230997478e-03  3.2088763502018699e-03  3.1564683887719360e-03  1.4800446564771541e-03  9.1225213081535606e-04  3.2092297332539685e-03  8.3802574466602649e-04  2.9295536270294996e-03  4.7355846683217855e-04  4.3753851545174494e-04  1.6805707931678436e-03  2.2495037349181879e-03  3.9716211729821389e-03  2.3832214257999583e-03  2.7519861210533823e-03  2.4280247949340903e-03  3.2786931330660266e-03  9.7949013081047981e-04  1.7927629992609999e-03  2.0694757543950554e-03  4.4090289741590110e-03  3.0888233412903632e-03  1.2512528939282808e-03  1.1978375024447455e-03  4.4663146882195429e-03  9.3333654044931269e-04  3.0978115612818719e-03  1.9180138001548769e-03  1.5396286865326111e-03  3.6832706717504398e-03  3.0452915849272810e-03  1.5403600857533267e-03  4.2046559647101420e-04  1.7075389983932222e-03  4.0955060536278600e-04  3.2964460314096142e-03  2.1605770883780964e-03  3.8665729855711143e-03  2.3568012305094591e-03  1.2230309467895