<?xml version="1.0"?>
<VTKFile type="UnstructuredGrid"  version="0.1"  >
<UnstructuredGrid>
<Piece  NumberOfPoints="2446" NumberOfCells="4585">
<Points>
<DataArray  type="Float64"  NumberOfComponents="3"  format="ascii">0 0.41 0  0 0 0  2.2 0 0  2.2 0.41 0  0.2404508497187474 0.2293892626146237 0  0.25 0.2 0  0.2404508497187474 0.1706107373853764 0  0.2154508497187474 0.1524471741852423 0  0.1845491502812526 0.1524471741852423 0  0.1595491502812526 0.1706107373853764 0  0.15 0.2 0  0.1595491502812526 0.2293892626146237 0  0.1845491502812527 0.2475528258147577 0  0.2154508497187474 0.2475528258147577 0  1.1 0 0  1.1 0.41 0  0 0.205 0  0.55 0 0  0.55 0.41 0  0.275 0 0  0.275 0.41 0  1.65 0.41 0  1.65 0 0  0.8250000000000001 0.41 0  0.8250000000000001 0 0  1.375 0 0  1.375 0.41 0  1.925 0 0  1.925 0.41 0  1.5125 0.205 0  1.7875 0.205 0  0.6875 0.205 0  0.9625000000000001 0.205 0  1.2375 0.205 0  2.2 0.205 0  0.4687002074688797 0.2068568464730291 0  1.99375 0.2152743902439024 0  2.0625 0 0  2.0625 0.41 0  2.2 0.3075 0  0.4125 0 0  0.4125 0.41 0  1.7875 0.41 0  1.375 0.1486128048780488 0  1.5125 0 0  1.7875 0 0  1.5125 0.41 0  0.8250000000000001 0.2613871951219511 0  0.9625000000000001 0.41 0  0.9625000000000001 0 0  0.6875 0.41 0  0.6875 0 0  0.1375 0 0  0.1375 0.41 0  1.2375 0 0  1.1 0.1486128048780487 0  1.2375 0.41 0  1.65 0.1486128048780487 0  1.126715909090909 0.2793064024390244 0  1.676715909090909 0.2793064024390244 0  0.8517159090909092 0.1306935975609756 0  1.348284090909091 0.2793064024390244 0  0.34375 0.3032389320646208 0  1.894702181800738 0.1282910975492754 0  2.092797818199262 0.1282910975492754 0  1.85625 0.3075 0  0.61875 0.3075 0  0.61875 0.1025 0  0.3648540804333487 0.1240075933101478 0  0 0.3075 0  0 0.1025 0  2.099172119769978 0.25625 0  0.48125 0.09238439620688085 0  0.5781001037344399 0.2059284232365146 0  0.48125 0.3196743479159776 0  0.7265881057911006 0.3055240343720796 0  1.99375 0.08395950269330846 0  1.459960956013612 0.3075 0  1.569025960719943 0.2986889805672169 0  0.75625 0.08213100772579164 0  1.03125 0.3278689922742084 0  0.923871252904788 0.3078247185783941 0  1.959375 0.3126371951219512 0  1.749222215368287 0.1025 0  1.275777784631713 0.1025 0  2.2 0.1025 0  1.225938124459196 0.3075 0  1.550777784631713 0.1025 0  1.000777784631713 0.1025 0  1.44375 0.07430640243902442 0  1.16875 0.07430640243902437 0  1.899250267340833 0.2229966846119207 0  0.1020898364287272 0.3140258291809757 0  1.766482954545455 0.2934032012195123 0  0.3405058858996321 0.2119987970531874 0  0.7710785630958338 0.1710968191298857 0  1.046078563095834 0.2389031808701144 0  0.2 0.3400647632937836 0  1.421109702350723 0.2261157654379721 0  0.2800464974185557 0.08982544815605742 0  0.098916018031319 0.09171660955420841 0  2.13125 0 0  2.118919042110979 0.3422084711244843 0  1.30625 0.41 0  0.89375 0 0  1.597888256393107 0.2173787389261347 0  0.20625 0 0  1.829299675393195 0.07400700849299596 0  1.71875 0.41 0  1.16875 0.41 0  2.038220665644273 0.332420740103091 0  0.34375 0 0  0.417496017710808 0.2696595573092803 0  0.2 0.07687845740457822 0  0.9295982307099278 0.1343158415898188 0  0.07390688010811153 0.1697064032433452 0  0.5238366813727013 0.2578302467013575 0  0.05452951551825875 0.25625 0  0.5229630068078351 0.1548816096928243 0  1.452769549894695 0.1548122580621249 0  1.369219062229598 0.07430640243902442 0  1.30625 0 0  0.8504409521244898 0.3356935975609756 0  0.8821881244591965 0.205 0  1.720943423819132 0.1714577452753128 0  1.157188124459196 0.205 0  1.094219062229598 0.07430640243902437 0  1.03125 0 0  1.304056576180868 0.1714577452753128 0  1.67579304192913 0.07430640243902437 0  0.2751941921308361 0.3346083473122598 0  1.209670467133757 0.1362100266964769 0  1.025335513626278 0.1700681449722324 0  0.7562500000000001 0.41 0  1.58125 0 0  0.7567170593862014 0.2409196493502535 0  0.6926714215682891 0.1272249611432207 0  0.4139715849905988 0.3397932387114203 0  0.9840787304190477 0.2717749043358119 0  0.06875000000000001 0.41 0  0 0.35875 0  0.9281250000000001 0.06276726142697993 0  0.5507396469029935 0.3219409231578227 0  0.5504468037989405 0.09136885600634273 0  1.58125 0.41 0  1.631724228912893 0.3381867502687533 0  1.825608881788174 0.14499488549201 0  1.85625 0 0  1.44375 0 0  1.44375 0.41 0  1.85625 0.41 0  2.13125 0.41 0  0.7562500000000001 0 0  0.89375 0.41 0  0.4812500000000001 0 0  0.34375 0.41 0  0.4812500000000001 0.41 0  0.20625 0.41 0  0.06875000000000001 0 0  1.16875 0 0  0.61875 0 0  0.61875 0.41 0  1.03125 0.41 0  1.71875 0 0  1.99375 0 0  1.99375 0.41 0  1.340625 0.3489494290853124 0  1.134375 0.3489494290853123 0  1.700180620188976 0.3438659752031281 0  2.135782184673599 0.07126652247502523 0  1.668441847249787 0.2129203728327609 0  1.295782514339747 0.2378437748815763 0  0.8233075729931248 0.06842334294821524 0  1.409375 0.3520314716057996 0  0.403505597322782 0.182067236678212 0  0.378125 0.05794951541303489 0  0.3043468223249023 0.1518321115979534 0  2.129248544730567 0.1906135162504124 0  2.060771381434487 0.1989445750470348 0  2.013252586573865 0.1496169464686054 0  1.942766402200229 0.1734448904596831 0  1.895522487186454 0.06076163953489683 0  2.069553871656643 0.06605731020975725 0  1.274680914880868 0.3520219391081363 0  1.614713220494657 0.09473434380863296 0  0.7899021319497519 0.3149123934144827 0  0.69518737419149 0.0634051089053758 0  0.2971740475496061 0.2592172353407536 0  1.72990325744076 0.2380068107952482 0  1.356580098625191 0.2120393231351682 0  2.034370752044885 0.2668681600792073 0  1.51768709249349 0.3426260931494756 0  1.561883724969884 0.1650446847858835 0  1.197344062229598 0.2523725417393646 0  1.804085235518364 0.3468178408964637 0  1.817887819205233 0.2589243285818559 0  1.905897727272727 0.3485060975609756 0  0.6719798073392919 0.2688965171178177 0  0 0.05125 0  0.653125 0.35875 0  0.6396896119294488 0.1627615407790282 0  0.4274150154087412 0.1242548552168279 0  1.192836486056382 0.3562350748565544 0  0.8279124365364005 0.183856489168822 0  1.097485222388854 0.2083571153401724 0  1.28257088594801 0.2944411014911587 0  1.474860187679412 0.2504218616229368 0  1.406767003493824 0.2829282258560709 0  0.446875 0.04619219810344041 0  0.515625 0.04585361801037557 0  0.592043440706648 0.05125 0  1.845656689180403 0.1998310418452388 0  2.144958525570388 0.2909790873294231 0  0.6171090763650112 0.2492366900333857 0  2.2 0.15375 0  0.5145586920831158 0.3648371739579888 0  1.57794966442982 0.3540357145964566 0  0.721875 0.3633107922168974 0  0.0496154796471391 0.333125 0  0.5843750000000001 0.3662560860076676 0  0.5810878747760798 0.1474002776121195 0  1.508991196088596 0.1421783375065625 0  0.8840670607017558 0.2640994375393898 0  0.09776612425612034 0.2204896805326566 0  1.50436820029908 0.06143401634903343 0  1.223857000523521 0.0823554862453532 0  1.153316824384777 0.1289850171317837 0  2.148922302309752 0.1258841779285271 0  0.309375 0.04312325590431198 0  1.621993280276081 0.2841214267927899 0  1.550118654119087 0.2461998729100966 0  1.327182649291491 0.1216967252533594 0  1.051977450479407 0.1221382572915816 0  1.753125 0.04556020050186112 0  1.271875 0.04556020050186116 0  0.9816084133102366 0.05126138213476004 0  1.039051841454368 0.0572224914831029 0  0.9719230514536006 0.3480477870845102 0  1.94956388244759 0.1180512551534177 0  1.949997712993411 0.04965831614304109 0  1.771961817615021 0.1530278789497521 0  1.909246823951428 0.2812757146784527 0  0.2459536687882397 0.04668633953831142 0  1.948575539857022 0.2445328248721197 0  1.697271520964565 0.1233917627620729 0  0.7964897648514618 0.1211426571931604 0  1.065625 0.3689344961371042 0  1.085849084308977 0.3170853572226867 0  0.4702981435440001 0.260434880697798 0  1.577403511714593 0.05463601888079143 0  0.05622663515370135 0.05493816910862376 0  0.3267207591099919 0.3566194660323104 0  0.9003051618565143 0.3564049499960621 0  1.751571320346033 0.3651102912045228 0  0.1583785085108421 0.2994699345738728 0  0.1455283439499995 0.3542795598723423 0  2.2 0.35875 0  0.2347662494194072 0.298325008655211 0  0.1527284455616188 0.1065771775690181 0  0.1382139529076665 0.05427454456341477 0  0.8749341636311069 0.05110114999892954 0  0.643661668713109 0.05693499781019222 0  1.466879772203159 0.3611261772912453 0  1.990280163552011 0.3564754268533217 0  1.17471064520912 0.2990917256188288 0  0.5202693090594349 0.206382495511728 0  0 0.25625 0  2.2 0.25625 0  2.2 0.05125 0  0 0.15375 0  1.853978576207987 0.35875 0  0.9787513713939683 0.1487523696999336 0  0.240625 0.3722153812029779 0  1.515638456102889 0.2882700110184686 0  0.09048297387599738 0.3637717362208066 0  2.150453692751374 0.2387066338105111 0  1.323782677156475 0.04897634338873398 0  0.8074131292871642 0.3624701995505916 0  1.409375 0.03715320121951221 0  1.406484531114799 0.1087852750766809 0  1.134375 0.03715320121951218 0  1.627401732573545 0.04552157221025036 0  0.1170173172005315 0.1427610859166811 0  2.045405893604797 0.1105340662939892 0  1.255408269734577 0.1577307500159216 0  2.028125 0.03707597992059326 0  0.4743610090857199 0.1421513964721819 0  0.9354010469015898 0.250631300585664 0  0.04420832937638274 0.128125 0  0.8922386349349938 0.0992956419364831 0  0.1197849154434487 0.2663398672460083 0  1.248258025468107 0.2565907092181813 0  0.3746885856929528 0.370723531618974 0  1.203125 0.0366132337404304 0  0.5724622277005015 0.2751253816079333 0  0.3365425205162783 0.08395777655057959 0  2.072662025974815 0.2975086504196739 0  0.4581080832182547 0.3648371739579888 0  0.3874522734668214 0.2295447548840689 0  0.7827853612484443 0.04106550386289586 0  1.887722846421017 0.1760882698830035 0  1.472640588990488 0.1118278026240017 0  1.865937103925594 0.2604137786483804 0  1.463913572748262 0.2030442564990043 0  1.376426316059077 0.3186741374914345 0  0.6641993820150034 0.3141688596240831 0  0.2943117490824315 0.2130987422685822 0  0.3478153998082709 0.1666571081082676 0  0.3427990510599805 0.2575950027870776 0  0.7997118993855807 0.2216171933356366 0  
[...]
<PointData  Scalars="f_10-1"> 
<DataArray  type="Float64"  Name="f_10-1"  format="ascii">5.5354850609338883e-04  8.8647459205384079e-05  6.9099692242250007e-04  1.5297008344123252e-03  2.0523895032332341e-03  1.4396222915090992e-03  7.1552725601586821e-04  2.9227958819890381e-04  2.3950099008425242e-04  2.8036724745298048e-04  3.7342538632196030e-04  7.0267691434368123e-04  1.4097489337270201e-03  2.0193086869381453e-03  4.4820266318526531e-04  3.4055285121098143e-03  2.5880965810253491e-04  1.2479060410356695e-04  4.0336830397997604e-03  1.0614104372881693e-04  3.9538820422380869e-03  2.8104276814915176e-03  7.7784980298049292e-04  3.7313650554601317e-03  2.5827372640753227e-04  6.3000939181873485e-04  3.1096173900086819e-03  8.3690334596780134e-04  2.3257123996722499e-03  1.8353855700058929e-03  1.7755362495347098e-03  1.8929033151003746e-03  1.8904643738023100e-03  1.8678158393308716e-03  1.3599711108808275e-03  1.8972861877675959e-03  1.7068999454445501e-03  7.9079239092613458e-04  1.9366223918502038e-03  1.6407450633416677e-03  1.1014194747064174e-04  4.1185097894827589e-03  2.6097477476241496e-03  1.3053060617707096e-03  7.1067032044868251e-04  8.2507715401809040e-04  2.9669451148082249e-03  2.7436361878501597e-03  3.5658539786056799e-03  3.5126958921267174e-04  3.8936468657372204e-03  1.7644113407899029e-04  9.5036984990098643e-05  2.3011274299213147e-03  5.4358102365078512e-04  1.2242143611689033e-03  3.2526125230773143e-03  1.3563481457696874e-03  2.7342430221877789e-03  2.3807564307618723e-03  9.0215586069505773e-04  2.5872272697696689e-03  3.8970311938862044e-03  1.2300446031646452e-03  1.1381814894174992e-03  2.3622359541291813e-03  3.5593336147226994e-03  4.2384850325088470e-04  2.4404309148692843e-04  4.0998527164884038e-04  1.3244131713415988e-04  1.7477313717605295e-03  2.2140679499371474e-04  1.8989942610263206e-03  3.8764715503328989e-03  3.3908633598908116e-03  9.9942279123984559e-04  2.7230328231394743e-03  2.5864397004426169e-03  4.1460093271992711e-04  3.2426273511559074e-03  3.1888458822253666e-03  2.2165362626190574e-03  1.0789533634156751e-03  9.0008940922965675e-04  9.3353124719426845e-04  2.9073790944320493e-03  1.0188549528141442e-03  7.4298540662573128e-04  8.2096764109880786e-04  6.6629496873643699e-04  1.8416942535660022e-03  4.4868635288387356e-03  2.3945735903363827e-03  2.0425611120711397e-03  1.3643819501385421e-03  2.3188571705753639e-03  5.0103406054078040e-03  2.0553302086432838e-03  1.6353213359755547e-04  1.3013738408148711e-04  7.3816689343992464e-04  1.8679199534882586e-03  3.1795633105152670e-03  3.0362471604364924e-04  1.9300743060654535e-03  1.0187483933895542e-04  9.6885813823022334e-04  2.7180749646251064e-03  3.3281837220446595e-03  2.0857122559182601e-03  1.0876930679603010e-04  3.3996566880553471e-03  1.4822811965913162e-04  9.9195899786374002e-04  2.0786722261827416e-04  3.0077992955335402e-03  3.6528109701817687e-04  8.6002452392652047e-04  1.3759122183423880e-03  7.8273487796702383e-04  5.8536354655972823e-04  3.4963933970535562e-03  1.8936434426190605e-03  1.5327698925841344e-03  1.8755224106834605e-03  6.2010181868885192e-04  4.0154479452307118e-04  1.5100685750519085e-03  9.2561166390787031e-04  4.3970232761104773e-03  1.1420630406911029e-03  1.4439259820492995e-03  3.8153109953335748e-03  7.4708640680799375e-04  2.4862463857515268e-03  7.2919473125633897e-04  4.0720923853028983e-03  2.7563498012772164e-03  9.2452411042244270e-04  4.8317160277645967e-04  4.4856200820199231e-04  3.7898311521404660e-03  2.8072243581058723e-04  2.8919525701558732e-03  2.7338635419852310e-03  1.3382908416750888e-03  8.3682878166632495e-04  6.6975885549549943e-04  3.0381418946330875e-03  2.4811809055039743e-03  1.7065692729007801e-03  2.1418732888767405e-04  3.6503835796437771e-03  1.1357101488113123e-04  4.1009730355914160e-03  4.0870806359059562e-03  3.4413204579780768e-03  9.0029848481268347e-05  4.9788315760521291e-04  1.4614631438149723e-04  3.9670749643683414e-03  3.4867291922669598e-03  8.0413802392190962e-04  8.1971255992736652e-04  2.1462966142239246e-03  3.0499094440225669e-03  3.2534309035268829e-03  2.6835158079153956e-03  8.7785308709842228e-04  1.8741776709886666e-03  2.2127595595240039e-03  3.9515117149288142e-04  2.9932788344350218e-03  1.1685550237121420e-03  1.2801780048157696e-04  4.1260266398444190e-04  1.4007163574875779e-03  1.5371034800312202e-03  1.3062848335072042e-03  1.4894605835135291e-03  9.3167125414722520e-04  9.0635041118775235e-04  3.1234499554280244e-03  9.9839792014200842e-04  3.4058725507075463e-03  2.7831699775766590e-04  2.8899395985265198e-03  2.0507415033775901e-03  1.9279742411734389e-03  1.9148000179636047e-03  2.8590218437695527e-03  1.4781442794390481e-03  2.4082408786186230e-03  2.5605251233840774e-03  2.1427149005803056e-03  2.3936544985627565e-03  2.9968122184817949e-03  9.9754748258553595e-05  3.8632742453517245e-03  1.1409892725742969e-03  3.1730603116688646e-04  3.2234214749309307e-03  1.5755513048574239e-03  1.9218753765192689e-03  2.7604618413296215e-03  2.2655550416412853e-03  2.5804192378482312e-03  1.2391246690316563e-04  1.3958472905009365e-04  1.7715990962060719e-04  1.7145135705593103e-03  1.7461257297049040e-03  2.7346199754884511e-03  1.1408115789807165e-03  4.0337012865929393e-03  2.8410142266856258e-03  3.7965120093219878e-03  7.0896136412823454e-04  3.9640752130436852e-03  8.4210574715783896e-04  1.2818513978484470e-03  2.7324073538712614e-03  3.8357332656448168e-04  8.0154273011664133e-04  7.4328303037508457e-04  1.0530581792278599e-03  1.0729471422743317e-03  1.1942418820296702e-04  2.4515503962770795e-03  2.1965939494186233e-03  1.0636618347217982e-03  9.3990174529710565e-04  8.6129203533896054e-04  6.1667574379118415e-04  4.3883839688006016e-04  5.0333427549964830e-04  3.4274055318479248e-03  1.1641026369001535e-03  8.9701143977754074e-04  1.3945918376003948e-03  2.1729738027493214e-03  1.2134213404806610e-04  1.9274213403515273e-03  1.1898103353118975e-03  7.6229776331029431e-04  3.4033938384177031e-03  3.1064358074407690e-03  3.1451606165746257e-03  8.1608890982099499e-04  1.0235442699983408e-04  4.2122417383820762e-03  3.5533672474622048e-03  2.6671491023142089e-03  5.3034284573111427e-03  4.3498068679621209e-03  1.6201963562032982e-03  3.7057760117797035e-03  1.6344582601645217e-04  1.1318847636678905e-04  3.6109977108735882e-04  2.1937507613919787e-04  2.9683198595630896e-03  2.2162153922567146e-03  2.8828063867959563e-03  1.8982986862609149e-03  3.5063084973987378e-04  1.5417978534537633e-03  7.7032445997667922e-04  1.8536083042478541e-04  2.4995830939914107e-03  1.1760324898511339e-03  4.1465991773050673e-03  2.5506863635833057e-03  1.6048505486344641e-03  1.5740617005757696e-03  6.5818232227630698e-04  3.6889406069426194e-03  6.8218574117581330e-04  1.0005683557407334e-03  5.0536126271521142e-04  8.1406034828280496e-04  1.8794868792664068e-04  1.0888986510525086e-03  1.3630973261444792e-03  8.5007250365060592e-04  5.8095984990448309e-04  2.5223345280402051e-03  1.5757677232296514e-04  6.4123767920974770e-04  3.3496624533867706e-03  2.4275403719070344e-03  4.1456543778747301e-03  5.5241627667767179e-04  3.2266102010344755e-03  1.5215081362991020e-04  1.9401175766347184e-03  4.0836282754738709e-03  2.5575479199100287e-03  2.6930470005942649e-04  1.5318594249074113e-03  1.0475913540604629e-03  2.1092096128808979e-03  1.8231410229501590e-03  2.8614377225354435e-03  3.5623479329269592e-03  1.9357017128217909e-03  6.1554852777703881e-04  3.1774286385392865e-03  2.1601654896803483e-03  2.3714586530356315e-03  2.1010658641788370e-03  8.0871408267071596e-04  1.2902327269503468e-03  7.5412200185554217e-04  2.2120611867912569e-03  2.8344315188646662e-03  2.4729228521999818e-03  1.6898672113915105e-03  2.8405882501134018e-04  2.0448646864713333e-03  1.2923064553139942e-03  1.9691491131049684e-03  2.5744642485681685e-03  2.3972628754814099e-03  2.6510823144150638e-04  1.9541983599718092e-03  1.7358382657053169e-03  1.8237195859571590e-03  1.9813343330370415e-03  9.7531056039473665e-05  2.3830181133054551e-04  2.8519388052211905e-03  1.1439697430866531e-03  2.0951050325626829e-03  9.8638285323962793e-05  2.2681075255105011e-03  1.6016839071083216e-03  6.9025940500587295e-04  1.6778285852604782e-03  2.9293020626825136e-03  3.6917595808527979e-03  7.9148061546344237e-04  8.4277012553877920e-04  3.5249758483180153e-03  3.4639750013995664e-03  7.5829915003362673e-04  1.6867246511796600e-03  6.2540773996945379e-04  4.1267385333333608e-04  3.7573647604715356e-03  1.5548972158446802e-03  1.2834260806297900e-03  2.1240467465271080e-03  8.7026643471679161e-04  1.0554064478187871e-03  7.2865733490426574e-04  2.3166036496064693e-03  2.1636231117389236e-03  1.9587380404701853e-04  2.5467030001779111e-03  4.6275814427462124e-04  2.5668173667598602e-03  2.7798053846317104e-03  6.1167877292826647e-04  1.5643198229881643e-04  2.9775858048344097e-03  1.2898384922777010e-03  3.6065932721764012e-03  1.8315060022527877e-03  3.2169435087172071e-03  1.3408556566572841e-03  7.2010830766795059e-04  1.1058693426169261e-04  1.5387314091752557e-03  1.0215211707163936e-03  2.2756776139457894e-03  2.9381065581008973e-03  3.8719518379976715e-03  3.8331629143660111e-03  1.8442223220540492e-03  7.5614841626829837e-04  2.3516955646392594e-03  2.2619312940205141e-03  1.4445566494059215e-03  2.3449371556297590e-04  1.2327713964156682e-03  2.8602883372191306e-03  8.7822547401652791e-04  3.1183773218559519e-03  2.4066411757840429e-03  8.7957232086055884e-04  8.3921047359164546e-04  1.0094271820461377e-03  9.9117484278984903e-04  9.9333177476297347e-04  8.1248285119631515e-04  1.0863200438567106e-03  8.8982901395334225e-05  3.3369036712074707e-03  3.8335579187664661e-03  5.4686298204106127e-04  2.0812701638629103e-03  1.3028240709636897e-03  1.2194076582526892e-03  3.1608946050900827e-03  1.7956814597592165e-03  1.4301569352621177e-04  4.3044039911873970e-03  9.6896544485472772e-04  4.7075962550425257e-04  3.5563930864001472e-03  3.7488070141294522e-03  1.5580866598725067e-03  2.0023563687606889e-04  2.5493031162063303e-03  5.5949835494354077e-04  9.5185664842485727e-04  2.4742211678152135e-03  4.1624187125064594e-03  3.8634229475811993e-03  2.2507256764779907e-03  4.0517323070903581e-03  1.3617683687007979e-03  1.2623558292849286e-03  4.2218993765864485e-04  1.2684093219417819e-03  2.2285168643383215e-04  3.5076146079692640e-03  2.4234201202485085e-03  3.6480122926261615e-03  3.5519508500876841e-04  7.4241125867017827e-04  1.7637496868315612e-03  1.8300405103467414e-03  1.2764263783904117e-03  1.1684262607624346e-03  1.0060370550236477e-03  6.5101779948178746e-04  8.7415383392983536e-04  1.4368665842714717e-03  1.3770449529125800e-03  1.3253673263981722e-03  1.6710233032144048e-04  4.1421265078869949e-03  8.6024804576046799e-04  1.0336168940731651e-03  1.2701296603570187e-04  4.6712813068993872e-03  2.6597404516742009e-03  2.6208461337747526e-03  3.3742946898183248e-03  1.9832299103848125e-04  2.6455251542017487e-03  1.1355272399645652e-04  2.5295037455067915e-03  2.8295731600742565e-03  1.6101604928477284e-03  2.9365721112346232e-03  7.1591836730383954e-04  8.3198627449165862e-04  3.6277798483275547e-03  1.7401338690167314e-03  1.7522298980612457e-03  8.1265800084360964e-04  8.8326750560681225e-04  1.8392484635093402e-03  1.5806037936503693e-03  1.4070643564517101e-03  2.5523676451817503e-03  8.4116983396169658e-04  1.9032814890851744e-03  1.0593109461859629e-03  1.5962069814327083e-03  1.8884595804247512e-04  7.9831436541335241e-04  3.3060922781501596e-03  3.6958258164052868e-04  3.4003766913476443e-04  2.8024435154214394e-04  2.9615175104693995e-04  9.2515553611530014e-04  1.0085630353636227e-03  4.0997570106008111e-04  1.6986620534028985e-03  1.8541310765141106e-03  3.0174052128623206e-03  2.0065759728997907e-03  2.0433161558131765e-03  1.2397279486718305e-03  1.5292357349745989e-03  2.6100093722370090e-03  1.2244467107092047e-04  4.1191236372761647e-03  6.6447021512428656e-04  1.0247778164000092e-03  3.0660083771193911e-03  1.1783166342874925e-03  3.3110163994102882e-03  3.3662069888847203e-03  3.1497311749435456e-03  3.1464365945971392e-03  3.0793429595691022e-03  3.0231538431870963e-03  1.6516538116316812e-03  1.2028796587647364e-03  3.2912254011912326e-03  3.7728452081663560e-03  3.9774437762885714e-03  1.5588106368003964e-03  4.4997933453549667e-04  1.1764132745491367e-04  1.0917983416169522e-04  3.8912431167279467e-03  3.5203939581994912e-03  3.7888642259656896e-03  3.8321475086899016e-03  1.4721373000499815e-03  5.7117410935001399e-04  2.3546463369348894e-03  2.1454316296846620e-04  5.5984812183659761e-04  4.3459758198136393e-04  2.8253994022974143e-03  2.7661606088686844e-03  1.4928564179439721e-03  1.4768840236737742e-03  2.0838421187291570e-03  3.2174334510940137e-03  3.3688792112935902e-03  5.2361426039734436e-04  1.2197707771634752e-04  6.0857485539253888e-04  4.2612072486511795e-04  7.0792217220545339e-04  7.6451595485646951e-04  4.7367398316899574e-04  6.5161526312519408e-04  3.0027246648411422e-03  2.6670455158034779e-03  3.4455940836175679e-03  8.1740130719759965e-04  3.8546223632424524e-03  3.0744976784721338e-03  1.9502679219107595e-04  1.5941623893526847e-03  3.2906476337406736e-04  4.1201035595550091e-03  1.1095220357816490e-04  4.1072917101573772e-03  9.2099863836012501e-05  3.7660572413770804e-03  1.0379438487356066e-04  1.5137410508154062e-03  1.5959308131128870e-04  2.3542572282408045e-04  1.0768670799879369e-04  4.0023132267744971e-03  4.0627359802766346e-03  1.3368795279576482e-04  1.1739674201894595e-04  3.9332869593337238e-03  3.7846813693401536e-04  5.1948402202721248e-04  7.6252589550043499e-04  8.2973181108010326e-04  5.6461572101215111e-04  8.0691405303576550e-04  2.2372240364766241e-03  2.7206243520755276e-03  1.1259947574725499e-03  4.0119344410842467e-04  1.1097784997896802e-03  1.3547632247228340e-03  1.6758665550944941e-04  2.2555306511070706e-03  2.5509740115581422e-03  3.1308672120908187e-03  2.7073881679364280e-03  2.7506229698780957e-03  8.6018838833549626e-04  2.4779160612876132e-03  2.9050281572587859e-03  3.0462044677723159e-03  2.2022334595528611e-03  2.3348677994172867e-03  1.8182021080874692e-03  1.5693178624786078e-04  2.4170129662090048e-03  1.1288387687683472e-03  2.1477902955548750e-03  1.8742740697679390e-03  2.2699528270986448e-03  2.9765109209871437e-03  3.3473564980459202e-03  2.8261918647865701e-03  3.5278511684302093e-03  3.0180532243013607e-04  3.8207336042944953e-03  7.7042273474834310e-04  3.9415336275630116e-03  8.2806233775235588e-04  9.9758872605410572e-04  6.8793432794196988e-04  3.8777159386528793e-03  1.5982608570255042e-03  1.4949885913759203e-03  3.0742367125370694e-03  1.6803647573170124e-03  1.3888514542130278e-03  2.3268523931855739e-03  1.9592363646636544e-03  1.2768959826386675e-04  3.2931763907785515e-03  3.0959862071064936e-03  2.3735523368738050e-03  2.0183374013423455e-03  2.5925854581638911e-03  1.9487232911933477e-03  2.4791495172884035e-03  2.5202552413440848e-03  1.9601727741901192e-03  9.9372631116345644e-04  1.6279501043420994e-03  2.0734762808876937e-04  1.4521196942824323e-03  1.2146426397809085e-03  6.7907508156371370e-04  3.4010474573019302e-03  9.5183873565782610e-04  9.2227115795258765e-04  2.1256457113779043e-04  2.3964500105115639e-03  2.6504077763521675e-03  2.9059679952817882e-03  2.2257561961485563e-03  2.3188758259459102e-04  1.0266338988154395e-04  7.5743157130504660e-04  2.8696484087892002e-03  9.9414030679307870e-04  1.6066297622492729e-03  1.2901577375783042e-04  8.7015700113091175e-04  8.8004067824367412e-04  1.9908889254734340e-04  2.1280127639616421e-03  2.4655340499160996e-03  3.4642814271510693e-03  2.3108937112098055e-03  1.5328457352734848e-03  9.4286562047384242e-04  7.5002901091263249e-04  1.9285155754333305e-03  6.2067469303209253e-04  3.0275737871507222e-03  8.2634419942367843e-04  2.2295153235618844e-03  1.6302071344575389e-04  2.1119150532144275e-03  2.6283615754020867e-03  2.2074296941897282e-03  1.6141429656710560e-03  8.2319333421189390e-04  2.2832747874146548e-03  2.2733869747943621e-03  1.5100121092615755e-03  7.1753999709618134e-04  2.2343912157089555e-03  9.1498758002403003e-05  9.3279958991718107e-05  1.2905248809410956e-03  1.0439866576586879e-03  2.9732430670971126e-03  3.3496343355389219e-03  4.0011264845687044e-03  2.8338414604530183e-03  1.0718638497708516e-04  4.1663316643448115e-03  3.6328791929728147e-03  1.1599263754312559e-03  2.9113551774628587e-03  3.1287129715171281e-03  4.2430102669368773e-03  7.2540872563327567e-04  2.5321779506353287e-03  3.6192023187150550e-03  3.0318213878771514e-04  3.5047228313648997e-03  1.1337189191486446e-04  8.9059256063513581e-04  3.3628774272627267e-03  8.7915744792169180e-04  2.2466189290483410e-03  1.1962773845165034e-03  2.2427419778504260e-03  1.4581178002993746e-03  2.7867553407750693e-03  2.4983527642140953e-04  1.5572552685590938e-03  1.7870955352536895e-03  1.2845786111487303e-03  2.3295987148341411e-03  1.5949076987159276e-03  8.2735990118171579e-04  2.5107831011430904e-03  1.8672241275873808e-03  5.4135419497349077e-04  4.2352970143219463e-03  6.1327588787078559e-03  2.0383399952096314e-03  3.0514622333052475e-03  1.9866309547388588e-03  2.0926249474606771e-03  2.5198706329013451e-03  2.0520664357079276e-03  6.8616486894931773e-04  2.4309336284614844e-03  2.6201115336764230e-04  3.1759965850045513e-04  3.3588884866336652e-03  1.8468260798041394e-03  1.8896036139459099e-03  2.5412341118613716e-03  2.3398548056845626e-03  3.6179176753564951e-03  5.0763077631260580e-04  1.7278443996772833e-03  2.8935056461180516e-03  2.8042983743735250e-03  3.2311383755352354e-03  3.6507325917708314e-03  1.0324476592541115e-03  5.5760763210975896e-03  2.7316575535539997e-03  2.4847562943559201e-03  3.6521656083273102e-03  3.1958941019275861e-03  3.8267411324247776e-03  9.0474530859121246e-04  2.7622940193755170e-03  3.1487930776046844e-03  2.4779812402502785e-04  7.6182987397290284e-04  2.1466795754943977e-03  4.2495155434918636e-04  2.3158496695265540e-03  1.7492808533952733e-04  1.3179693981619021e-03  2.5918626331859042e-03  1.5532212827218395e-04  9.2747959278622054e-04  6.2537238515194930e-04  1.5514514587229984e-04  2.6104220103912953e-03  2.6492187043170344e-03  1.8101125886450515e-03  1.7056683553203994e-03  1.6910238978776280e-03  4.0458266725238827e-03  1.9245392987491182e-03  2.1946297073157581e-03  1.2461135611698954e-03  6.0138784967815368e-04  8.2053634713899828e-04  8.3463754580577682e-04  1.1050689251075664e-03  1.7514585575516279e-03  1.0974105976658810e-03  8.3969928795258296e-04  1.4279453873962348e-04  1.7109179258390488e-03  3.1344602602920465e-03  3.0954130621473515e-03  3.2777072224712857e-03  3.0903451312536512e-03  4.0755978575164990e-03  4.0232978929848348e-03  7.2279722892648330e-04  1.0886207032415961e-04  1.2629895783537206e-04  9.3674317688370386e-05  2.9382485285092707e-03  1.1136926099301587e-04  5.9140681932929326e-04  4.1118811678411199e-03  1.1380885346528814e-03  1.2505706508664624e-03  2.2960960565540569e-04  2.9823686030730896e-04  2.7355108564357977e-03  2.8099240014924343e-03  2.7923017040769067e-03  1.1404270935803189e-03  5.2252820133970659e-04  2.8468709929585978e-03  4.4037480919662024e-04  2.5364462109791252e-03  1.5496493160963717e-04  1.2909940348479259e-04  1.3162980973294583e-03  1.6539456311026213e-03  3.5930813837518117e-03  2.0408293717031883e-03  2.3903228493795006e-03  2.0819501183169547e-03  2.9032015677477856e-03  6.8801907360499580e-04  1.4762323475092339e-03  1.7147108342122925e-03  4.0179627165061590e-03  2.6198940010085381e-03  9.1875038616746115e-04  8.5284152292802642e-04  4.0815023539978613e-03  6.0898819097571992e-04  2.6663769414050861e-03  1.5847538956190669e-03  1.2295106149101181e-03  3.2965325785661265e-03  2.6767140857464938e-03  1.2200350560652169e-03  1.2494491953023404e-04  1.3647480611823704e-03  1.1085557884127768e-04  2.9226988842566337e-03  1.8170178336158348e-03  3.4934202532085289e-03  2.0052548631893197e-03  9.2279664322944