<?xml version="1.0"?>
<VTKFile type="UnstructuredGrid"  version="0.1"  >
<UnstructuredGrid>
<Piece  NumberOfPoints="2446" NumberOfCells="4585">
<Points>
<DataArray  type="Float64"  NumberOfComponents="3"  format="ascii">0 0.41 0  0 0 0  2.2 0 0  2.2 0.41 0  0.2404508497187474 0.2293892626146237 0  0.25 0.2 0  0.2404508497187474 0.1706107373853764 0  0.2154508497187474 0.1524471741852423 0  0.1845491502812526 0.1524471741852423 0  0.1595491502812526 0.1706107373853764 0  0.15 0.2 0  0.1595491502812526 0.2293892626146237 0  0.1845491502812527 0.2475528258147577 0  0.2154508497187474 0.2475528258147577 0  1.1 0 0  1.1 0.41 0  0 0.205 0  0.55 0 0  0.55 0.41 0  0.275 0 0  0.275 0.41 0  1.65 0.41 0  1.65 0 0  0.8250000000000001 0.41 0  0.8250000000000001 0 0  1.375 0 0  1.375 0.41 0  1.925 0 0  1.925 0.41 0  1.5125 0.205 0  1.7875 0.205 0  0.6875 0.205 0  0.9625000000000001 0.205 0  1.2375 0.205 0  2.2 0.205 0  0.4687002074688797 0.2068568464730291 0  1.99375 0.2152743902439024 0  2.0625 0 0  2.0625 0.41 0  2.2 0.3075 0  0.4125 0 0  0.4125 0.41 0  1.7875 0.41 0  1.375 0.1486128048780488 0  1.5125 0 0  1.7875 0 0  1.5125 0.41 0  0.8250000000000001 0.2613871951219511 0  0.9625000000000001 0.41 0  0.9625000000000001 0 0  0.6875 0.41 0  0.6875 0 0  0.1375 0 0  0.1375 0.41 0  1.2375 0 0  1.1 0.1486128048780487 0  1.2375 0.41 0  1.65 0.1486128048780487 0  1.126715909090909 0.2793064024390244 0  1.676715909090909 0.2793064024390244 0  0.8517159090909092 0.1306935975609756 0  1.348284090909091 0.2793064024390244 0  0.34375 0.3032389320646208 0  1.894702181800738 0.1282910975492754 0  2.092797818199262 0.1282910975492754 0  1.85625 0.3075 0  0.61875 0.3075 0  0.61875 0.1025 0  0.3648540804333487 0.1240075933101478 0  0 0.3075 0  0 0.1025 0  2.099172119769978 0.25625 0  0.48125 0.09238439620688085 0  0.5781001037344399 0.2059284232365146 0  0.48125 0.3196743479159776 0  0.7265881057911006 0.3055240343720796 0  1.99375 0.08395950269330846 0  1.459960956013612 0.3075 0  1.569025960719943 0.2986889805672169 0  0.75625 0.08213100772579164 0  1.03125 0.3278689922742084 0  0.923871252904788 0.3078247185783941 0  1.959375 0.3126371951219512 0  1.749222215368287 0.1025 0  1.275777784631713 0.1025 0  2.2 0.1025 0  1.225938124459196 0.3075 0  1.550777784631713 0.1025 0  1.000777784631713 0.1025 0  1.44375 0.07430640243902442 0  1.16875 0.07430640243902437 0  1.899250267340833 0.2229966846119207 0  0.1020898364287272 0.3140258291809757 0  1.766482954545455 0.2934032012195123 0  0.3405058858996321 0.2119987970531874 0  0.7710785630958338 0.1710968191298857 0  1.046078563095834 0.2389031808701144 0  0.2 0.3400647632937836 0  1.421109702350723 0.2261157654379721 0  0.2800464974185557 0.08982544815605742 0  0.098916018031319 0.09171660955420841 0  2.13125 0 0  2.118919042110979 0.3422084711244843 0  1.30625 0.41 0  0.89375 0 0  1.597888256393107 0.2173787389261347 0  0.20625 0 0  1.829299675393195 0.07400700849299596 0  1.71875 0.41 0  1.16875 0.41 0  2.038220665644273 0.332420740103091 0  0.34375 0 0  0.417496017710808 0.2696595573092803 0  0.2 0.07687845740457822 0  0.9295982307099278 0.1343158415898188 0  0.07390688010811153 0.1697064032433452 0  0.5238366813727013 0.2578302467013575 0  0.05452951551825875 0.25625 0  0.5229630068078351 0.1548816096928243 0  1.452769549894695 0.1548122580621249 0  1.369219062229598 0.07430640243902442 0  1.30625 0 0  0.8504409521244898 0.3356935975609756 0  0.8821881244591965 0.205 0  1.720943423819132 0.1714577452753128 0  1.157188124459196 0.205 0  1.094219062229598 0.07430640243902437 0  1.03125 0 0  1.304056576180868 0.1714577452753128 0  1.67579304192913 0.07430640243902437 0  0.2751941921308361 0.3346083473122598 0  1.209670467133757 0.1362100266964769 0  1.025335513626278 0.1700681449722324 0  0.7562500000000001 0.41 0  1.58125 0 0  0.7567170593862014 0.2409196493502535 0  0.6926714215682891 0.1272249611432207 0  0.4139715849905988 0.3397932387114203 0  0.9840787304190477 0.2717749043358119 0  0.06875000000000001 0.41 0  0 0.35875 0  0.9281250000000001 0.06276726142697993 0  0.5507396469029935 0.3219409231578227 0  0.5504468037989405 0.09136885600634273 0  1.58125 0.41 0  1.631724228912893 0.3381867502687533 0  1.825608881788174 0.14499488549201 0  1.85625 0 0  1.44375 0 0  1.44375 0.41 0  1.85625 0.41 0  2.13125 0.41 0  0.7562500000000001 0 0  0.89375 0.41 0  0.4812500000000001 0 0  0.34375 0.41 0  0.4812500000000001 0.41 0  0.20625 0.41 0  0.06875000000000001 0 0  1.16875 0 0  0.61875 0 0  0.61875 0.41 0  1.03125 0.41 0  1.71875 0 0  1.99375 0 0  1.99375 0.41 0  1.340625 0.3489494290853124 0  1.134375 0.3489494290853123 0  1.700180620188976 0.3438659752031281 0  2.135782184673599 0.07126652247502523 0  1.668441847249787 0.2129203728327609 0  1.295782514339747 0.2378437748815763 0  0.8233075729931248 0.06842334294821524 0  1.409375 0.3520314716057996 0  0.403505597322782 0.182067236678212 0  0.378125 0.05794951541303489 0  0.3043468223249023 0.1518321115979534 0  2.129248544730567 0.1906135162504124 0  2.060771381434487 0.1989445750470348 0  2.013252586573865 0.1496169464686054 0  1.942766402200229 0.1734448904596831 0  1.895522487186454 0.06076163953489683 0  2.069553871656643 0.06605731020975725 0  1.274680914880868 0.3520219391081363 0  1.614713220494657 0.09473434380863296 0  0.7899021319497519 0.3149123934144827 0  0.69518737419149 0.0634051089053758 0  0.2971740475496061 0.2592172353407536 0  1.72990325744076 0.2380068107952482 0  1.356580098625191 0.2120393231351682 0  2.034370752044885 0.2668681600792073 0  1.51768709249349 0.3426260931494756 0  1.561883724969884 0.1650446847858835 0  1.197344062229598 0.2523725417393646 0  1.804085235518364 0.3468178408964637 0  1.817887819205233 0.2589243285818559 0  1.905897727272727 0.3485060975609756 0  0.6719798073392919 0.2688965171178177 0  0 0.05125 0  0.653125 0.35875 0  0.6396896119294488 0.1627615407790282 0  0.4274150154087412 0.1242548552168279 0  1.192836486056382 0.3562350748565544 0  0.8279124365364005 0.183856489168822 0  1.097485222388854 0.2083571153401724 0  1.28257088594801 0.2944411014911587 0  1.474860187679412 0.2504218616229368 0  1.406767003493824 0.2829282258560709 0  0.446875 0.04619219810344041 0  0.515625 0.04585361801037557 0  0.592043440706648 0.05125 0  1.845656689180403 0.1998310418452388 0  2.144958525570388 0.2909790873294231 0  0.6171090763650112 0.2492366900333857 0  2.2 0.15375 0  0.5145586920831158 0.3648371739579888 0  1.57794966442982 0.3540357145964566 0  0.721875 0.3633107922168974 0  0.0496154796471391 0.333125 0  0.5843750000000001 0.3662560860076676 0  0.5810878747760798 0.1474002776121195 0  1.508991196088596 0.1421783375065625 0  0.8840670607017558 0.2640994375393898 0  0.09776612425612034 0.2204896805326566 0  1.50436820029908 0.06143401634903343 0  1.223857000523521 0.0823554862453532 0  1.153316824384777 0.1289850171317837 0  2.148922302309752 0.1258841779285271 0  0.309375 0.04312325590431198 0  1.621993280276081 0.2841214267927899 0  1.550118654119087 0.2461998729100966 0  1.327182649291491 0.1216967252533594 0  1.051977450479407 0.1221382572915816 0  1.753125 0.04556020050186112 0  1.271875 0.04556020050186116 0  0.9816084133102366 0.05126138213476004 0  1.039051841454368 0.0572224914831029 0  0.9719230514536006 0.3480477870845102 0  1.94956388244759 0.1180512551534177 0  1.949997712993411 0.04965831614304109 0  1.771961817615021 0.1530278789497521 0  1.909246823951428 0.2812757146784527 0  0.2459536687882397 0.04668633953831142 0  1.948575539857022 0.2445328248721197 0  1.697271520964565 0.1233917627620729 0  0.7964897648514618 0.1211426571931604 0  1.065625 0.3689344961371042 0  1.085849084308977 0.3170853572226867 0  0.4702981435440001 0.260434880697798 0  1.577403511714593 0.05463601888079143 0  0.05622663515370135 0.05493816910862376 0  0.3267207591099919 0.3566194660323104 0  0.9003051618565143 0.3564049499960621 0  1.751571320346033 0.3651102912045228 0  0.1583785085108421 0.2994699345738728 0  0.1455283439499995 0.3542795598723423 0  2.2 0.35875 0  0.2347662494194072 0.298325008655211 0  0.1527284455616188 0.1065771775690181 0  0.1382139529076665 0.05427454456341477 0  0.8749341636311069 0.05110114999892954 0  0.643661668713109 0.05693499781019222 0  1.466879772203159 0.3611261772912453 0  1.990280163552011 0.3564754268533217 0  1.17471064520912 0.2990917256188288 0  0.5202693090594349 0.206382495511728 0  0 0.25625 0  2.2 0.25625 0  2.2 0.05125 0  0 0.15375 0  1.853978576207987 0.35875 0  0.9787513713939683 0.1487523696999336 0  0.240625 0.3722153812029779 0  1.515638456102889 0.2882700110184686 0  0.09048297387599738 0.3637717362208066 0  2.150453692751374 0.2387066338105111 0  1.323782677156475 0.04897634338873398 0  0.8074131292871642 0.3624701995505916 0  1.409375 0.03715320121951221 0  1.406484531114799 0.1087852750766809 0  1.134375 0.03715320121951218 0  1.627401732573545 0.04552157221025036 0  0.1170173172005315 0.1427610859166811 0  2.045405893604797 0.1105340662939892 0  1.255408269734577 0.1577307500159216 0  2.028125 0.03707597992059326 0  0.4743610090857199 0.1421513964721819 0  0.9354010469015898 0.250631300585664 0  0.04420832937638274 0.128125 0  0.8922386349349938 0.0992956419364831 0  0.1197849154434487 0.2663398672460083 0  1.248258025468107 0.2565907092181813 0  0.3746885856929528 0.370723531618974 0  1.203125 0.0366132337404304 0  0.5724622277005015 0.2751253816079333 0  0.3365425205162783 0.08395777655057959 0  2.072662025974815 0.2975086504196739 0  0.4581080832182547 0.3648371739579888 0  0.3874522734668214 0.2295447548840689 0  0.7827853612484443 0.04106550386289586 0  1.887722846421017 0.1760882698830035 0  1.472640588990488 0.1118278026240017 0  1.865937103925594 0.2604137786483804 0  1.463913572748262 0.2030442564990043 0  1.376426316059077 0.3186741374914345 0  0.6641993820150034 0.3141688596240831 0  0.2943117490824315 0.2130987422685822 0  0.3478153998082709 0.1666571081082676 0  0.3427990510599805 0.2575950027870776 0  0.7997118993855807 0.2216171933356366 0  
[...]
<PointData  Scalars="f_10-1"> 
<DataArray  type="Float64"  Name="f_10-1"  format="ascii">3.7908189914008222e-05  1.2077681306049918e-08  6.5818980029981778e-41  2.5405597551723055e-40  9.7149666408116904e-04  3.0254465287382713e-04  6.8810093097670496e-05  2.1714692600618678e-05  2.9641662859131499e-05  5.5193646414177602e-05  1.3070729756173237e-04  4.3838983997340449e-04  1.1163364755661556e-03  1.5040192538854156e-03  3.1740241263066389e-17  9.6603542079042980e-16  1.5049505565578008e-05  1.0417532106139323e-09  5.6151302081792840e-06  1.0831969248928954e-07  1.3767988384034103e-03  1.3447851537045184e-27  1.3786504618762413e-28  2.3454102596490615e-10  1.3056633665072690e-12  1.2634157575319711e-22  1.6078062603657637e-21  1.3255680063992887e-34  5.3371274874595301e-34  1.1169487384123037e-23  7.5819219040067050e-30  1.0069644789941992e-07  2.0442602125712718e-12  7.7883637714071548e-18  2.5166610230753088e-39  5.6644191410752627e-05  1.2471660198796565e-34  8.7326336543006048e-38  2.2431626601311839e-37  2.0724901347408488e-39  2.1372067186494128e-08  1.8388173076388373e-04  4.8538207036942268e-31  5.5088187932016393e-21  1.5306414645438963e-25  1.0507920154456231e-31  1.7117842662588609e-24  1.0835211114017303e-09  5.6079168745697201e-13  9.2826591510543191e-15  5.0412255371508737e-08  7.6272451423152099e-11  1.8445130176294548e-08  1.4202824630048241e-03  8.5452785445541448e-20  2.1415929622643353e-15  1.5835664761759111e-18  5.6571247288307449e-27  2.1676659271731847e-15  2.9978512526560096e-27  5.3080904136140575e-11  5.3308683902093952e-20  1.7371762457453171e-03  1.1810668543898588e-32  2.7661768176701187e-37  2.2275845958948153e-31  2.4540346115282386e-06  4.7137140114847760e-08  3.0032714703513727e-06  2.3411945355704542e-05  7.9574532997778832e-07  5.0315006054559266e-37  3.1081678672083929e-07  3.3953155342633296e-06  1.3221934777811364e-04  5.5821813662212276e-08  3.4897089987993917e-35  1.9246896190680222e-22  7.5501391792358946e-25  3.7588218495646643e-10  1.6124060010011659e-13  2.0672972944868013e-11  8.8146559234857837e-34  1.8155984198029352e-29  3.0859128522165727e-19  1.0263844609776524e-39  2.0327177254097670e-17  4.8416890477426955e-25  6.5018345620849750e-14  5.7702874060223902e-23  2.1832399566003623e-17  2.0744311609971345e-32  4.1036156070464935e-03  2.5765804284379460e-29  5.1022843577571331e-04  2.6940455442881967e-09  7.3936516524661424e-14  4.3824330983946776e-03  1.2124959172787030e-21  3.7981256370627785e-06  4.5937675355957326e-07  1.4158431960713404e-39  1.0148150430300758e-37  4.9629731289834945e-20  1.0356859619975530e-13  1.4900147331625736e-25  6.8969445444123475e-08  1.7640145321567329e-31  3.6391271569839037e-29  4.3876222987892388e-17  8.7190063160234525e-36  7.3105882920169479e-08  4.8762933258280060e-04  2.8264464540434747e-06  2.6197545602186268e-12  5.4457712621908320e-06  3.4536134242453168e-05  5.5543651813827915e-05  3.3645889308425138e-06  1.3179154968044078e-22  2.0367895474960171e-21  2.5822789512399690e-21  3.7177963164715931e-10  5.8738559803940841e-11  1.8201488461896800e-28  3.3182213172885779e-16  6.2156906029990789e-16  6.7042738747793429e-16  2.2502915542858113e-19  5.1053023370485832e-28  3.0254357070269261e-03  1.1360331731898620e-17  8.3631023973659453e-14  2.9828329976012712e-09  5.7093215915731918e-27  1.3173936868157796e-08  1.3832967775092429e-08  5.0975018315699305e-04  1.3812135621932198e-12  3.2863956304285429e-04  1.7696569446299818e-05  3.9431828290260740e-13  1.9936893396775352e-05  1.1795110435325657e-07  4.5780050355270763e-26  2.2376810830046522e-26  5.6793098478092512e-31  3.3890254540598654e-33  3.1046737240556881e-24  6.2218811296689831e-23  2.2099242798466088e-32  7.1395067055280413e-39  1.1402670642813765e-11  1.2448251945096706e-11  4.1033001469766277e-09  6.1856857247322584e-04  3.7129548267737962e-05  1.8670178245835843e-03  1.2704315945477946e-08  2.0154093071479611e-18  3.3968537435766594e-10  6.1736861540899355e-07  2.6032031057484980e-14  4.4256864980336061e-30  2.6000243101660841e-36  1.2925159030083093e-35  5.3096487566391423e-20  1.1440311657224891e-15  5.4923264676211653e-28  1.3122431510807540e-38  3.7460145573544570e-27  6.4498528496190848e-19  2.2947618971946668e-11  1.6872573290999372e-21  7.9679338817205162e-05  2.8751821330655552e-07  1.9985189270426777e-05  7.3850795627252158e-38  3.0219260750492633e-36  2.6160874721779242e-35  1.5116380478428159e-33  4.3973434155765562e-33  4.2432331283919187e-37  1.3477766084786772e-18  1.6123721242462952e-26  4.7649449843216474e-09  1.1421757884464013e-09  1.7872811020034558e-03  1.8247266842695874e-28  2.7212038489861176e-20  1.5743429818407191e-35  7.6649859681363054e-24  6.3357473115062589e-25  7.4633439943916194e-17  2.2741464104033807e-30  1.5466321459169624e-30  9.4767669093634345e-33  3.6135624539105546e-07  9.2237842866703492e-08  5.5238550770755229e-07  1.9469080958248680e-07  2.6455958049924695e-06  6.5848133409754804e-17  3.9763375280619550e-10  5.4900186395381380e-15  1.3671658769557201e-18  9.6178895366723846e-23  2.8640496552543147e-21  4.3950355086641581e-08  1.8600467458353616e-08  6.5055023592051445e-09  3.0767140819724594e-31  4.0113814763965389e-38  1.9151933171363118e-06  1.6425113350373752e-39  3.7314297652493028e-05  2.5842505548117553e-25  4.2323554222984017e-08  2.8424033986340841e-04  4.6366195643326595e-06  6.6704680784652112e-07  6.7622074088416312e-24  9.7543437042970812e-11  1.2466442644196147e-04  2.0726074231976183e-24  2.3387953916814044e-18  1.3898091593274844e-16  1.3860820896689183e-38  5.1848470933820342e-07  5.0314355911162654e-26  2.0261146444373089e-24  3.4825237733076543e-20  1.1624441989889303e-14  4.7593586450365076e-30  9.8321678118228554e-20  3.3616623003742105e-14  3.7796994089442229e-15  1.8396867869549073e-12  5.6100853594943828e-34  1.7661771010036696e-34  1.0340303022226962e-29  1.2817504892130095e-32  8.0143190735963482e-07  1.5100400158183453e-33  3.4454193840968709e-28  3.3636148642618383e-10  1.9554621212636296e-14  1.3305086585058888e-14  1.4240254383245316e-04  4.7454875732524354e-26  1.0651257224858566e-07  1.6126046713230533e-03  3.6466943239435420e-11  2.3120813500578747e-29  4.9488539080273309e-03  3.8196713718462736e-03  1.1613935766319901e-39  3.1894212319260530e-03  3.2867603619052268e-06  1.8386771898586882e-07  1.9170543328376230e-12  2.8319409691467401e-09  7.9851781908050453e-23  8.9561281309217190e-35  2.2955142283856272e-16  1.6398391922938040e-05  3.7146779735569907e-05  2.6541544720952967e-39  4.0700176573891886e-40  4.2870866187404029e-06  1.2660149345171569e-31  4.3549388512031600e-13  2.6330774663883704e-03  1.1658215650135030e-23  1.0945664056377067e-03  3.0093794751467969e-38  1.0001446558964025e-20  1.5529614152241703e-09  1.0319895135952652e-22  6.3964374971145711e-22  3.1967800484708724e-17  3.0779430013038105e-27  3.8424171751793236e-06  2.9929852262900408e-36  1.8326036392228275e-18  1.9362290384934479e-36  4.5864630097807399e-06  1.0825415146540686e-11  1.8262888812786817e-06  4.9267386220777871e-12  3.0409962741026592e-03  6.8651204769512213e-18  7.0281537151374454e-04  1.6920137606610058e-18  9.9066050971141194e-06  1.3681226946557596e-06  1.9303513455435919e-36  1.5275429644576310e-04  4.5658573924645747e-04  3.0480176984390662e-11  2.9716343554262317e-32  2.5637232361684498e-23  1.3382273936608848e-31  1.2134375126547402e-22  1.2097410007577974e-20  5.2209758947359294e-07  5.8707154883433561e-04  3.8668900713854504e-05  1.3420880109203405e-03  2.0773187294012903e-09  2.6413137923351945e-28  1.6837332022117430e-29  3.3218424056010296e-38  1.4804597639249838e-08  2.7171056398264169e-09  5.1346276877000137e-13  1.9266552179688754e-13  1.1202042303540176e-14  3.2672744330531877e-21  1.4048281385074160e-05  1.8674030290157034e-36  5.8600515727406003e-26  5.0949722050709399e-07  7.4269851184519383e-08  2.1953420251449295e-30  1.6534626375260831e-05  1.7205045809241882e-34  1.0302772097249596e-38  4.2551711196484502e-38  7.9631699925472629e-37  4.5044961304047547e-08  1.3085463077799448e-10  7.9865176703734864e-27  2.1252091405885136e-30  7.1841962350009512e-35  3.6182767770300447e-08  9.3258855410898402e-21  3.8179744715500632e-17  7.3937883174372714e-25  2.2338921781584586e-26  2.7978964090889347e-25  4.5445112459897271e-11  1.9944456982094313e-29  4.9935094136968839e-29  1.3826838606925500e-13  2.1935682726088017e-13  1.5746741289257147e-39  5.4804453221693888e-39  9.0449672630717659e-05  9.7034478174438475e-09  7.8240834833455154e-09  8.3611963212064017e-12  2.9274311332241009e-11  2.3585970930993458e-26  4.7662805602295964e-31  3.3324542360456555e-32  3.4691516863287109e-26  6.6189350399712664e-34  1.6929110801179841e-04  1.1435218180660563e-05  1.2975612992598250e-31  3.9323131493086121e-16  1.1072969841466659e-28  2.4468952644824139e-27  2.2724058783151339e-13  2.9379524847541939e-07  1.8174483697201459e-03  2.7098971087711666e-36  2.9311432675393808e-12  1.3929676919781044e-24  6.8768605336774643e-18  4.1860490147589416e-37  7.2425387753509653e-24  2.3649160542515259e-07  1.3102771594696007e-14  2.8509384431237075e-05  2.7109333138122802e-25  5.8515172457796666e-09  9.2798263002460122e-04  3.4430201323663883e-04  1.2564756385251676e-08  1.8791601061976491e-16  2.5734548235163020e-10  1.6180264634145336e-15  5.2107839069326484e-16  1.3030790154715863e-05  1.1099384146104408e-38  1.9586794713203326e-19  1.8649085511115536e-35  3.9350051239476359e-10  3.0879469414980678e-33  1.9669620249668481e-32  6.8906370954653466e-34  1.0175335466941890e-33  3.4007669324146029e-24  9.2950429426336893e-29  3.1514610443020619e-28  2.7833666206666812e-27  1.2345363789480570e-08  9.3508654963334186e-11  2.5161234778381934e-03  5.6393682432462957e-05  5.1940896111795644e-36  8.1286253602783700e-22  5.4339905730875959e-08  9.7116112207668284e-13  1.4327618020050670e-03  6.4053040528749045e-09  3.9158985231282787e-03  2.6813452755714380e-30  2.3375402951424347e-09  5.4386435351392309e-12  1.8987668734447414e-07  2.7228486698464602e-23  5.3263276976826486e-06  4.2750077790447418e-16  1.7120247267428715e-11  3.7152580880143602e-36  4.5421348295209017e-22  2.0834539372164953e-03  2.9970989954249271e-03  1.3428326399258864e-23  9.7308807093638046e-04  8.1769770982839682e-07  1.4518409964378094e-05  1.0807144911170490e-06  3.0888153452592675e-06  4.2985943771137794e-06  8.4038641398953762e-05  1.2104636319410682e-05  1.2188898870572252e-10  6.9381371298357996e-06  2.8211058541030914e-25  5.7260817592284045e-29  1.1245914938175132e-18  6.3458813211064822e-29  2.2077521494951894e-19  4.0898104403791517e-21  1.1447579478238401e-21  1.9191835804198853e-15  1.0350937645673099e-27  3.5554686965187044e-20  2.2648062106565183e-34  2.1125421711014842e-06  1.2884577038010027e-03  1.4979169903293943e-17  1.8622468099491801e-18  5.4257512961733158e-07  3.7742771954337802e-03  1.2629929511843244e-25  3.8679992109450727e-27  9.0988855878527876e-04  1.3054394949521867e-05  1.9377109003307241e-03  2.7077491538337502e-07  5.3977026092881804e-05  1.4747308306339409e-26  1.3169500802829650e-25  2.1486841209075543e-24  4.5489479088108495e-08  2.3001583914461116e-32  2.2722194937463256e-08  3.3541418807867700e-36  2.2286713946017258e-35  4.2685904279783831e-20  1.0053501682151061e-04  2.8056098477074098e-37  1.6285381015559744e-37  1.2558837941769659e-38  1.5725440828061812e-29  3.4513482276764629e-25  1.1580340549959180e-13  8.4476977547027168e-14  4.4294099049173370e-13  4.7746193417841347e-10  3.0987638930119446e-22  6.3037116978920979e-15  6.4219342865985029e-14  3.0658979182499970e-13  4.3627277784070383e-13  3.6565537759278030e-12  4.1914258303190814e-39  5.1163900973397221e-38  4.4664485686834386e-15  8.9178043942026064e-34  9.3004539578014285e-38  2.3549602771496102e-08  4.4517073381130721e-17  1.0103186327636686e-11  8.6176852251614131e-32  2.5948414721540461e-30  5.1827563920408651e-06  3.9893914394027948e-07  2.7637407622301132e-04  1.1841564432786951e-12  1.3996449648049868e-04  4.4921848157116025e-12  5.7453506954367064e-10  1.9485169927636516e-16  2.3410049543395781e-16  1.6649452301294425e-19  7.9509365360854048e-21  7.0139215507727172e-21  1.1171293576983455e-15  5.1810822154994082e-22  7.9796354560829081e-38  6.9261403009877947e-18  8.5206696246958064e-10  1.5479427116186405e-05  2.0836911956942863e-04  1.1366152345246599e-05  7.4326762775729897e-08  3.9479287074666147e-08  5.1850813861765036e-05  3.3510016234505584e-05  6.2588450563017141e-06  1.9890759850120496e-06  1.5247822181174897e-31  3.0125900822525460e-19  2.3612058577072645e-12  1.3030025159651017e-07  6.6915528809772420e-07  1.4811857635404148e-07  2.1374164193295056e-21  1.6467332605278637e-28  1.0720719919869805e-34  1.5683484175639528e-35  8.0555146038226772e-34  2.5068757689070084e-19  1.3438600835654991e-15  6.9454701235223070e-18  1.5361379710079204e-08  4.8032634474787411e-22  1.4678432291036540e-16  2.4948794693272585e-40  9.8018941418667940e-39  8.2537132116181016e-18  2.6195553875762363e-23  1.0218695070569174e-23  5.4468254235799127e-30  5.1485192649247328e-15  1.0237619905060485e-30  1.4364967045688119e-08  2.4897360897450792e-22  2.9769159822798465e-11  1.2029510694314670e-39  3.6226865567729414e-14  3.6010341977228211e-04  8.6385084214503295e-09  8.8139283559896583e-05  1.3757601178204147e-08  1.7067180154324364e-03  8.2759825248822580e-08  8.1061743668542775e-04  1.4831680581857945e-10  3.9441210063967304e-12  9.9965382023639358e-08  1.7453323030502204e-06  1.4436827092101871e-05  5.5565304282145593e-10  1.6804420036621791e-09  1.6039662564060082e-07  2.7957858100463215e-15  3.2304284405001820e-19  9.3955726742683826e-28  1.7170061547213671e-35  1.4478906629093397e-20  4.5956330027543228e-37  8.0466163393363714e-35  1.2075646024925251e-28  1.8202014892251910e-35  9.4130995349694819e-11  1.7047829664624164e-22  9.8126412225879238e-17  7.1259749040221779e-07  1.0216926653969564e-19  3.1359970821487730e-19  2.7512357879014204e-16  3.4938835599275933e-24  3.2806398462988446e-23  9.3985227338791454e-34  2.1811189821540535e-03  3.8269797575742290e-22  3.8856759107031132e-22  8.4857730960090051e-28  2.9745723490081700e-32  5.1677534045740623e-28  4.0919222476905738e-06  3.1439483968774663e-07  3.2115394836997230e-31  4.3867538683294757e-27  2.0859007610800732e-19  5.1058310344465441e-33  1.2039729428848899e-23  1.2340818465348380e-09  3.5269361922241563e-14  6.6433270296810256e-13  2.3879829276428305e-05  2.9835718556922028e-03  7.1056100124838814e-27  1.0141789829191711e-06  2.9688535228286108e-37  2.6406808687571141e-37  1.2448775153884165e-14  1.3844843762273433e-07  1.3708415570790104e-20  1.1951144910960277e-03  6.4912060926296329e-18  4.8962920843978409e-33  5.7689643531053375e-33  1.6836396154317828e-03  7.0863453119319826e-37  6.4087925191176288e-07  1.0240381954165757e-06  1.1787757936283399e-07  3.6622956848640236e-11  1.2378719600415151e-35  1.0054855201679638e-30  2.8533096032864353e-14  5.9657163393703388e-31  9.4878071139172517e-28  4.3248606143482921e-31  1.7687363531188485e-34  1.1459243812243895e-38  4.9182753828665018e-07  1.8784641663181098e-12  2.5226394360178932e-25  7.9012355045592996e-11  8.3323182576453549e-12  8.4144177365529311e-26  2.9604840161736727e-27  1.5993707022440371e-05  3.7634213111718177e-33  1.1441661730859688e-03  3.2493051847555192e-25  1.0492170931379022e-03  7.4417597762850362e-06  7.4575089165549979e-08  1.8923061307466088e-07  6.2146016406356961e-26  5.6799132936451440e-16  3.0604971587793149e-24  1.1750153076689533e-06  1.1022984753775246e-20  5.6906661176683402e-13  1.6416855035754100e-10  1.6558731618907200e-06  2.2340638425674564e-32  1.7616042577531471e-07  1.7795194981405055e-33  8.8332418988865159e-18  9.6310718893224634e-12  3.6574113963314308e-26  2.2955687129721784e-30  2.5891622108075222e-15  7.3486693934495920e-17  5.5819016615831516e-04  7.0735859351173616e-29  1.5567752814943189e-09  3.3938922456598272e-18  2.5591983366271087e-17  2.2843837865870800e-16  4.1942403555085199e-27  1.1325965113505764e-23  5.9082576792864081e-30  6.3577502780936768e-31  5.7431578467505235e-37  1.0916016527958653e-24  8.4265216655582841e-35  2.6788534217954282e-08  3.4229469575067856e-08  1.3569163637360840e-24  5.6214614610768431e-33  7.3571417975298510e-19  3.0101476156006108e-03  2.3384183614004976e-04  1.5457736777221647e-24  1.7540674305993563e-07  3.0758137257203377e-03  1.7868254139615956e-04  1.0238332274704828e-34  2.3034073562167059e-04  2.2851046607698384e-20  2.3807169978625107e-03  4.1238678944628943e-19  1.1886061593154238e-31  1.1357216531674343e-11  1.8884138685496702e-05  1.9643073795351444e-03  1.2107162027879307e-07  8.5293874823224102e-38  1.6804998609437813e-08  9.7899765895647840e-32  1.9633202772281521e-17  1.2239544597571785e-26  6.7403748232314908e-32  2.5175884086143176e-39  8.4330535600998645e-15  3.6306628452899857e-08  3.6753451620134966e-15  1.2555631695045753e-15  1.1018300856826553e-10  1.3880504177759119e-26  1.7168969179791940e-07  2.3692955929394237e-39  2.6501377428896441e-13  3.1785316215612511e-36  2.0703896033278118e-14  3.7855916056587727e-03  5.7492165139739369e-03  2.7087041993245851e-32  6.1414841396441502e-11  4.9507064795412986e-21  2.7390503802207510e-22  1.0368728569033744e-22  3.4086062656923103e-23  1.7521575498891991e-23  7.8701581391943296e-32  6.1013086052073116e-12  5.7791460869392884e-10  5.6336074175891463e-13  3.9437683864582430e-09  2.1112835036710256e-10  1.2192992373067256e-20  1.4728134895038285e-21  7.2596534753361150e-09  1.5682362490085127e-16  6.2515811544242478e-32  1.2449913743489510e-11  7.9723301789876314e-07  3.6771647881798597e-06  7.1791650713142369e-08  1.1268221108361283e-39  5.1510593455772460e-03  6.2221244653781689e-18  1.5861834371771983e-18  4.6480137670151213e-10  4.6202057172852686e-19  1.2278639348039174e-08  2.3530241656229818e-29  3.4897551589201957e-10  3.4688189526983457e-15  1.1135517276508075e-08  4.5629131102118331e-05  1.5868950113294232e-35  1.1604921769311789e-15  7.8769739644721055e-10  3.1260016232139406e-08  2.9317354370677706e-23  1.8115621682653869e-26  1.1085630828538672e-07  1.4340555544309838e-09  7.0203263735864447e-10  5.1831731620356568e-08  2.2501766888943162e-03  4.3515962273457939e-30  4.9354019721989220e-38  9.0687628125096456e-38  8.8585004292071409e-39  1.3685128384708818e-05  8.7108661027766451e-32  1.6929567867194378e-34  2.0477481003936521e-14  1.3167106707639490e-20  5.6695487715388017e-30  7.8026508422039607e-31  6.1922450519664755e-26  3.2848005596151247e-08  3.9822571635301044e-17  5.4313086689588044e-17  1.6578529312915452e-06  5.3291804093168014e-20  2.1782658747492974e-17  5.3341891167591060e-14  2.9709244399761907e-14  2.1556634567767490e-09  6.0082670178877452e-05  1.0182034321420873e-04  9.7049293454161381e-20  1.6429599355616877e-07  1.0805914583529682e-06  3.2736023526926961e-08  2.1240079990123900e-03  3.1455599881959159e-07  1.1483739329576438e-16  1.0546302322510491e-03  4.6829294125785645e-09  1.8304358852773124e-39  -1.2789364705017485e-06  2.4589809220290577e-05  4.5120803666436247e-25  6.2289729339783883e-26  2.4754446753046037e-03  2.4415015949328116e-33  1.3953823368758003e-04  3.7450203228547819e-04  1.4939988255777004e-05  2.1338291107979774e-03  1.2424156702218839e-06  4.3843174078483183e-07  1.2423188905986570e-33  7.3769502998067747e-37  1.0457783669085515e-05  5.3850772916156253e-24  9.4445559246740880e-25  4.9713710031185563e-25  4.6639159392989275e-20  6.2565629544584628e-18  3.6583165431704894e-26  1.5268473168802368e-30  6.5720388812550652e-06  6.7562941540904586e-30  8.9548470972683317e-34  2.0003124888292822e-34  8.7631588026945641e-04  1.3963680502023165e-05  1.1828614468350205e-28  1.2524001298582174e-09  1.4820816247349110e-29  3.6443072296673606e-17  8.7024959485785528e-22  8.0534902247978626e-12  3.4373708659002084e-09  3.8324604703909780e-32  1.6163956120868060e-07  3.3338498095077743e-18  7.4666715555941041e-06  2.9956042649731981e-04  1.3497125846540481e-27  4.749574018637