<?xml version="1.0"?>
<VTKFile type="UnstructuredGrid"  version="0.1"  >
<UnstructuredGrid>
<Piece  NumberOfPoints="2446" NumberOfCells="4585">
<Points>
<DataArray  type="Float64"  NumberOfComponents="3"  format="ascii">0 0.41 0  0 0 0  2.2 0 0  2.2 0.41 0  0.2404508497187474 0.2293892626146237 0  0.25 0.2 0  0.2404508497187474 0.1706107373853764 0  0.2154508497187474 0.1524471741852423 0  0.1845491502812526 0.1524471741852423 0  0.1595491502812526 0.1706107373853764 0  0.15 0.2 0  0.1595491502812526 0.2293892626146237 0  0.1845491502812527 0.2475528258147577 0  0.2154508497187474 0.2475528258147577 0  1.1 0 0  1.1 0.41 0  0 0.205 0  0.55 0 0  0.55 0.41 0  0.275 0 0  0.275 0.41 0  1.65 0.41 0  1.65 0 0  0.8250000000000001 0.41 0  0.8250000000000001 0 0  1.375 0 0  1.375 0.41 0  1.925 0 0  1.925 0.41 0  1.5125 0.205 0  1.7875 0.205 0  0.6875 0.205 0  0.9625000000000001 0.205 0  1.2375 0.205 0  2.2 0.205 0  0.4687002074688797 0.2068568464730291 0  1.99375 0.2152743902439024 0  2.0625 0 0  2.0625 0.41 0  2.2 0.3075 0  0.4125 0 0  0.4125 0.41 0  1.7875 0.41 0  1.375 0.1486128048780488 0  1.5125 0 0  1.7875 0 0  1.5125 0.41 0  0.8250000000000001 0.2613871951219511 0  0.9625000000000001 0.41 0  0.9625000000000001 0 0  0.6875 0.41 0  0.6875 0 0  0.1375 0 0  0.1375 0.41 0  1.2375 0 0  1.1 0.1486128048780487 0  1.2375 0.41 0  1.65 0.1486128048780487 0  1.126715909090909 0.2793064024390244 0  1.676715909090909 0.2793064024390244 0  0.8517159090909092 0.1306935975609756 0  1.348284090909091 0.2793064024390244 0  0.34375 0.3032389320646208 0  1.894702181800738 0.1282910975492754 0  2.092797818199262 0.1282910975492754 0  1.85625 0.3075 0  0.61875 0.3075 0  0.61875 0.1025 0  0.3648540804333487 0.1240075933101478 0  0 0.3075 0  0 0.1025 0  2.099172119769978 0.25625 0  0.48125 0.09238439620688085 0  0.5781001037344399 0.2059284232365146 0  0.48125 0.3196743479159776 0  0.7265881057911006 0.3055240343720796 0  1.99375 0.08395950269330846 0  1.459960956013612 0.3075 0  1.569025960719943 0.2986889805672169 0  0.75625 0.08213100772579164 0  1.03125 0.3278689922742084 0  0.923871252904788 0.3078247185783941 0  1.959375 0.3126371951219512 0  1.749222215368287 0.1025 0  1.275777784631713 0.1025 0  2.2 0.1025 0  1.225938124459196 0.3075 0  1.550777784631713 0.1025 0  1.000777784631713 0.1025 0  1.44375 0.07430640243902442 0  1.16875 0.07430640243902437 0  1.899250267340833 0.2229966846119207 0  0.1020898364287272 0.3140258291809757 0  1.766482954545455 0.2934032012195123 0  0.3405058858996321 0.2119987970531874 0  0.7710785630958338 0.1710968191298857 0  1.046078563095834 0.2389031808701144 0  0.2 0.3400647632937836 0  1.421109702350723 0.2261157654379721 0  0.2800464974185557 0.08982544815605742 0  0.098916018031319 0.09171660955420841 0  2.13125 0 0  2.118919042110979 0.3422084711244843 0  1.30625 0.41 0  0.89375 0 0  1.597888256393107 0.2173787389261347 0  0.20625 0 0  1.829299675393195 0.07400700849299596 0  1.71875 0.41 0  1.16875 0.41 0  2.038220665644273 0.332420740103091 0  0.34375 0 0  0.417496017710808 0.2696595573092803 0  0.2 0.07687845740457822 0  0.9295982307099278 0.1343158415898188 0  0.07390688010811153 0.1697064032433452 0  0.5238366813727013 0.2578302467013575 0  0.05452951551825875 0.25625 0  0.5229630068078351 0.1548816096928243 0  1.452769549894695 0.1548122580621249 0  1.369219062229598 0.07430640243902442 0  1.30625 0 0  0.8504409521244898 0.3356935975609756 0  0.8821881244591965 0.205 0  1.720943423819132 0.1714577452753128 0  1.157188124459196 0.205 0  1.094219062229598 0.07430640243902437 0  1.03125 0 0  1.304056576180868 0.1714577452753128 0  1.67579304192913 0.07430640243902437 0  0.2751941921308361 0.3346083473122598 0  1.209670467133757 0.1362100266964769 0  1.025335513626278 0.1700681449722324 0  0.7562500000000001 0.41 0  1.58125 0 0  0.7567170593862014 0.2409196493502535 0  0.6926714215682891 0.1272249611432207 0  0.4139715849905988 0.3397932387114203 0  0.9840787304190477 0.2717749043358119 0  0.06875000000000001 0.41 0  0 0.35875 0  0.9281250000000001 0.06276726142697993 0  0.5507396469029935 0.3219409231578227 0  0.5504468037989405 0.09136885600634273 0  1.58125 0.41 0  1.631724228912893 0.3381867502687533 0  1.825608881788174 0.14499488549201 0  1.85625 0 0  1.44375 0 0  1.44375 0.41 0  1.85625 0.41 0  2.13125 0.41 0  0.7562500000000001 0 0  0.89375 0.41 0  0.4812500000000001 0 0  0.34375 0.41 0  0.4812500000000001 0.41 0  0.20625 0.41 0  0.06875000000000001 0 0  1.16875 0 0  0.61875 0 0  0.61875 0.41 0  1.03125 0.41 0  1.71875 0 0  1.99375 0 0  1.99375 0.41 0  1.340625 0.3489494290853124 0  1.134375 0.3489494290853123 0  1.700180620188976 0.3438659752031281 0  2.135782184673599 0.07126652247502523 0  1.668441847249787 0.2129203728327609 0  1.295782514339747 0.2378437748815763 0  0.8233075729931248 0.06842334294821524 0  1.409375 0.3520314716057996 0  0.403505597322782 0.182067236678212 0  0.378125 0.05794951541303489 0  0.3043468223249023 0.1518321115979534 0  2.129248544730567 0.1906135162504124 0  2.060771381434487 0.1989445750470348 0  2.013252586573865 0.1496169464686054 0  1.942766402200229 0.1734448904596831 0  1.895522487186454 0.06076163953489683 0  2.069553871656643 0.06605731020975725 0  1.274680914880868 0.3520219391081363 0  1.614713220494657 0.09473434380863296 0  0.7899021319497519 0.3149123934144827 0  0.69518737419149 0.0634051089053758 0  0.2971740475496061 0.2592172353407536 0  1.72990325744076 0.2380068107952482 0  1.356580098625191 0.2120393231351682 0  2.034370752044885 0.2668681600792073 0  1.51768709249349 0.3426260931494756 0  1.561883724969884 0.1650446847858835 0  1.197344062229598 0.2523725417393646 0  1.804085235518364 0.3468178408964637 0  1.817887819205233 0.2589243285818559 0  1.905897727272727 0.3485060975609756 0  0.6719798073392919 0.2688965171178177 0  0 0.05125 0  0.653125 0.35875 0  0.6396896119294488 0.1627615407790282 0  0.4274150154087412 0.1242548552168279 0  1.192836486056382 0.3562350748565544 0  0.8279124365364005 0.183856489168822 0  1.097485222388854 0.2083571153401724 0  1.28257088594801 0.2944411014911587 0  1.474860187679412 0.2504218616229368 0  1.406767003493824 0.2829282258560709 0  0.446875 0.04619219810344041 0  0.515625 0.04585361801037557 0  0.592043440706648 0.05125 0  1.845656689180403 0.1998310418452388 0  2.144958525570388 0.2909790873294231 0  0.6171090763650112 0.2492366900333857 0  2.2 0.15375 0  0.5145586920831158 0.3648371739579888 0  1.57794966442982 0.3540357145964566 0  0.721875 0.3633107922168974 0  0.0496154796471391 0.333125 0  0.5843750000000001 0.3662560860076676 0  0.5810878747760798 0.1474002776121195 0  1.508991196088596 0.1421783375065625 0  0.8840670607017558 0.2640994375393898 0  0.09776612425612034 0.2204896805326566 0  1.50436820029908 0.06143401634903343 0  1.223857000523521 0.0823554862453532 0  1.153316824384777 0.1289850171317837 0  2.148922302309752 0.1258841779285271 0  0.309375 0.04312325590431198 0  1.621993280276081 0.2841214267927899 0  1.550118654119087 0.2461998729100966 0  1.327182649291491 0.1216967252533594 0  1.051977450479407 0.1221382572915816 0  1.753125 0.04556020050186112 0  1.271875 0.04556020050186116 0  0.9816084133102366 0.05126138213476004 0  1.039051841454368 0.0572224914831029 0  0.9719230514536006 0.3480477870845102 0  1.94956388244759 0.1180512551534177 0  1.949997712993411 0.04965831614304109 0  1.771961817615021 0.1530278789497521 0  1.909246823951428 0.2812757146784527 0  0.2459536687882397 0.04668633953831142 0  1.948575539857022 0.2445328248721197 0  1.697271520964565 0.1233917627620729 0  0.7964897648514618 0.1211426571931604 0  1.065625 0.3689344961371042 0  1.085849084308977 0.3170853572226867 0  0.4702981435440001 0.260434880697798 0  1.577403511714593 0.05463601888079143 0  0.05622663515370135 0.05493816910862376 0  0.3267207591099919 0.3566194660323104 0  0.9003051618565143 0.3564049499960621 0  1.751571320346033 0.3651102912045228 0  0.1583785085108421 0.2994699345738728 0  0.1455283439499995 0.3542795598723423 0  2.2 0.35875 0  0.2347662494194072 0.298325008655211 0  0.1527284455616188 0.1065771775690181 0  0.1382139529076665 0.05427454456341477 0  0.8749341636311069 0.05110114999892954 0  0.643661668713109 0.05693499781019222 0  1.466879772203159 0.3611261772912453 0  1.990280163552011 0.3564754268533217 0  1.17471064520912 0.2990917256188288 0  0.5202693090594349 0.206382495511728 0  0 0.25625 0  2.2 0.25625 0  2.2 0.05125 0  0 0.15375 0  1.853978576207987 0.35875 0  0.9787513713939683 0.1487523696999336 0  0.240625 0.3722153812029779 0  1.515638456102889 0.2882700110184686 0  0.09048297387599738 0.3637717362208066 0  2.150453692751374 0.2387066338105111 0  1.323782677156475 0.04897634338873398 0  0.8074131292871642 0.3624701995505916 0  1.409375 0.03715320121951221 0  1.406484531114799 0.1087852750766809 0  1.134375 0.03715320121951218 0  1.627401732573545 0.04552157221025036 0  0.1170173172005315 0.1427610859166811 0  2.045405893604797 0.1105340662939892 0  1.255408269734577 0.1577307500159216 0  2.028125 0.03707597992059326 0  0.4743610090857199 0.1421513964721819 0  0.9354010469015898 0.250631300585664 0  0.04420832937638274 0.128125 0  0.8922386349349938 0.0992956419364831 0  0.1197849154434487 0.2663398672460083 0  1.248258025468107 0.2565907092181813 0  0.3746885856929528 0.370723531618974 0  1.203125 0.0366132337404304 0  0.5724622277005015 0.2751253816079333 0  0.3365425205162783 0.08395777655057959 0  2.072662025974815 0.2975086504196739 0  0.4581080832182547 0.3648371739579888 0  0.3874522734668214 0.2295447548840689 0  0.7827853612484443 0.04106550386289586 0  1.887722846421017 0.1760882698830035 0  1.472640588990488 0.1118278026240017 0  1.865937103925594 0.2604137786483804 0  1.463913572748262 0.2030442564990043 0  1.376426316059077 0.3186741374914345 0  0.6641993820150034 0.3141688596240831 0  0.2943117490824315 0.2130987422685822 0  0.3478153998082709 0.1666571081082676 0  0.3427990510599805 0.2575950027870776 0  0.7997118993855807 0.2216171933356366 0  
[...]
<PointData  Scalars="f_10-1"> 
<DataArray  type="Float64"  Name="f_10-1"  format="ascii">6.9488948544395713e-04  1.6984090951439217e-04  1.0817869684067146e-03  2.5816523930308256e-03  2.1666374646400585e-03  1.5484786677434394e-03  8.1985035769898372e-04  3.9558051502781199e-04  3.4454402049040783e-04  3.8785836585821383e-04  4.8368200485950433e-04  8.1585263345751869e-04  1.5251149984766845e-03  2.1358642970808433e-03  5.2784799062280299e-04  3.5397365671791170e-03  3.7011458255418122e-04  2.0866171378051458e-04  4.1682927864643551e-03  1.9086226920002558e-04  4.0901493781169800e-03  2.9896896881792317e-03  8.6179349160440033e-04  3.8658841519003864e-03  3.4001204373154486e-04  7.0801653018762222e-04  3.2459933777332752e-03  9.8827531367962399e-04  2.7693450136667980e-03  1.9415013412440918e-03  1.9039219548488500e-03  2.0017952092471389e-03  1.9980418498475412e-03  1.9740352926794318e-03  1.8444605909014240e-03  2.0076065639298810e-03  1.9455004887858163e-03  1.0427125405367737e-03  2.6675229738667323e-03  2.3973410267438388e-03  1.9505284466305979e-04  4.2533887699239955e-03  2.8758360180510161e-03  1.3993606811621858e-03  7.8935553650891698e-04  9.2767884120413676e-04  3.1131444055030313e-03  2.8631367557278410e-03  3.7002380113013386e-03  4.3193840346822534e-04  4.0282583587668130e-03  2.5922641670269371e-04  1.7756156587809158e-04  2.4405730710650485e-03  6.2230292803101752e-04  1.3197883154304584e-03  3.3869309860973277e-03  1.4530245161693315e-03  2.8557793562581494e-03  2.5176741599195612e-03  9.9587809756149725e-04  2.7082788022731218e-03  4.0229340281936450e-03  1.3590497444632241e-03  1.3930372218430756e-03  2.5870641940417289e-03  3.6870806472847689e-03  5.1438885554698542e-04  3.3954875726472473e-04  5.4207585365461622e-04  2.2310457890564823e-04  2.1806209387215392e-03  3.1153800890119894e-04  2.0085851518644739e-03  4.0058491837481336e-03  3.5179822591784580e-03  1.1660269645892411e-03  2.8504109776552374e-03  2.7169655888985649e-03  5.0186352938241764e-04  3.3718362910478620e-03  3.3156517551537865e-03  2.5489777639077101e-03  1.1739320074217480e-03  9.8681604689077464e-04  1.2887956885505802e-03  3.0332663262670118e-03  1.1051012259853680e-03  8.3144641510064755e-04  9.0317040999681548e-04  7.5001296256617790e-04  2.0205653092025956e-03  4.6183119925863273e-03  2.5609568129015782e-03  2.1551019615918166e-03  1.4659524292697597e-03  2.4330115693132616e-03  5.1407068108270436e-03  2.1655962405902492e-03  2.5809018325127553e-04  2.2037328859867135e-04  1.0653613175056044e-03  2.5576619470939117e-03  3.3144482759941427e-03  3.8481111082718590e-04  2.0412233417823515e-03  1.8581484169720767e-04  1.0735222208528806e-03  2.9312076905862348e-03  3.4623528350568068e-03  2.5786265886633690e-03  1.9384274648347085e-04  3.5225691265672334e-03  2.4129589776484303e-04  1.0859038325265564e-03  3.1211890297332882e-04  3.1282716897794620e-03  4.8722758348609772e-04  9.5914295727843140e-04  1.4709806255037495e-03  8.6519282699137575e-04  6.6357620006489860e-04  3.6269075760968338e-03  2.0016088935113255e-03  1.6397114382446620e-03  1.9821361531004713e-03  7.0435372578629013e-04  4.8176312699978061e-04  1.6089792109711754e-03  1.0119475879475995e-03  4.5259554368946350e-03  1.2347097842899525e-03  1.5440564512775824e-03  3.9499408985140538e-03  8.2746148154851735e-04  2.6021530189636001e-03  8.2307525018804437e-04  4.2032649433305213e-03  2.8770983910016749e-03  1.0655139195578688e-03  6.2207117355355518e-04  5.3275388238134308e-04  3.9194662222189645e-03  3.7024123273026198e-04  3.0503572997102493e-03  2.8835612014706880e-03  1.4533620424204098e-03  9.5884370193588899e-04  7.4776083623316603e-04  3.1777384190056260e-03  2.8204529066780666e-03  2.6180782695826824e-03  2.9640646546564382e-04  3.7849068098075624e-03  1.9801126101637727e-04  4.2363463279888307e-03  4.2217905483607817e-03  3.5790848597650770e-03  1.7150896038041705e-04  5.7711299880967187e-04  2.2947185576494832e-04  4.1016637612645264e-03  3.6210682231812069e-03  8.9496072957423933e-04  1.0148075085085215e-03  2.7170626854797031e-03  3.1814984979461713e-03  3.3846519648315344e-03  2.8537422794468158e-03  1.1649854064225745e-03  1.9883509542560521e-03  2.3256509378704274e-03  4.8054803593776944e-04  3.1262983438130865e-03  1.2731746082081949e-03  2.1607103558909265e-04  5.1324546722447250e-04  1.7628286395459437e-03  1.8238600714023227e-03  1.5052618661004721e-03  1.6583027933866797e-03  1.0549969829080769e-03  1.1294729361421025e-03  3.2549396537824493e-03  1.0846340270021042e-03  3.5340798885380785e-03  3.6408549658327688e-04  3.0089130758105126e-03  2.1810808412053677e-03  2.0352252635485886e-03  2.2693384175721323e-03  2.9955279083985790e-03  1.5759810131449178e-03  2.5244326079276271e-03  2.7856014465740637e-03  2.3077707414520914e-03  2.7162282746488161e-03  3.1183915346336016e-03  1.8350481490529220e-04  3.9961357289110683e-03  1.2414096203194173e-03  4.1174230138892059e-04  3.3552435332038460e-03  1.6794300032870076e-03  2.0294858177476584e-03  2.8842013098499789e-03  2.3815156237430241e-03  2.7023986144181496e-03  2.1030806347386704e-04  2.2541082798222136e-04  2.6268929155999200e-04  1.8561802133925426e-03  2.3480411883749649e-03  2.8528923338983960e-03  1.5404021589454039e-03  4.1669973780091921e-03  2.9863108934776103e-03  3.9296184816680433e-03  8.4465996019728647e-04  4.0974345588324522e-03  9.3978205924103190e-04  1.3745526683448840e-03  2.8521248412054149e-03  4.9745346975884328e-04  8.8258596012538877e-04  8.2757857897865824e-04  1.1447842069735230e-03  1.3886950402854559e-03  2.0668215952351942e-04  2.5828329560582054e-03  2.3132125170377263e-03  1.1530959954341798e-03  1.0310754055209441e-03  9.5346385324733063e-04  6.9697058354932625e-04  5.2161691180712311e-04  5.8624660575783789e-04  3.5588873832658246e-03  1.3121785554335752e-03  1.0446336796409367e-03  1.5025230468834548e-03  2.4117429307160447e-03  2.0917778924398712e-04  2.1586979234902415e-03  1.2839626754522283e-03  8.5473969724383534e-04  3.5363339647055273e-03  3.2340616464278291e-03  3.2664429563649898e-03  8.9751013028761773e-04  1.8667962747709373e-04  4.3447343955392605e-03  3.6857410361865136e-03  2.8737874119193658e-03  5.4283796312333630e-03  4.4848679298681469e-03  2.5472092184919584e-03  3.8276199412375146e-03  2.5965198452169638e-04  1.9974256187341388e-04  4.4459399555435956e-04  3.0492885943810152e-04  3.1047271815033690e-03  2.6778687353569311e-03  3.0075318951275384e-03  2.0082647268199684e-03  4.7308925941228955e-04  2.1475758949118266e-03  1.1291279342983804e-03  2.8565368701548874e-04  2.7798013345333049e-03  1.2723026166144410e-03  4.2814432128958808e-03  2.6758780397541692e-03  1.7433603979672366e-03  2.0587066166792983e-03  7.3841431576007895e-04  3.8218916882472474e-03  7.6129567825207012e-04  1.0875275421856282e-03  5.8603384225718372e-04  8.9645681968859847e-04  2.8885293377835865e-04  1.2938573045106773e-03  1.4595208657174172e-03  1.0516976170788764e-03  6.7782454450717952e-04  2.6392927799439268e-03  2.5310480138989534e-04  7.2988149596143310e-04  3.4709346380316342e-03  2.5443722454290812e-03  4.2794246837921882e-03  6.3260088957537981e-04  3.3497865044763218e-03  2.4392295508484318e-04  2.4157467705990809e-03  4.2169247122849736e-03  2.6737280677308906e-03  3.5275464206256397e-04  1.6767815825500503e-03  1.1349045836184521e-03  2.2984221397274757e-03  1.9284479529642553e-03  2.9893485016713049e-03  3.6908417758943299e-03  2.0479109757041542e-03  7.1657827774834087e-04  3.2981020269258685e-03  2.2719594598879368e-03  2.5190034258878139e-03  2.2455511729534065e-03  1.0788655735135674e-03  1.3914259413106830e-03  8.4749439108889636e-04  2.3244779692608774e-03  2.9567854426398445e-03  2.5897409285064593e-03  1.7920702115110894e-03  3.8493632019069129e-04  2.6924874699206388e-03  1.3859411701750732e-03  2.0791579302872499e-03  2.6913111841878907e-03  2.5905271310972416e-03  3.7727574441992267e-04  2.2433740085811816e-03  2.5009567926428571e-03  2.6425211525939966e-03  2.6326453032129962e-03  1.8071195690257599e-04  3.2209255753436119e-04  3.0195384126160138e-03  1.2461293790046407e-03  2.4708510051666380e-03  1.8191890036108762e-04  2.3827029765988296e-03  1.7031411060146361e-03  7.6850816999727634e-04  1.7830971181463078e-03  3.0806804889401272e-03  3.8263075070195177e-03  8.7837613923243281e-04  9.3024012388563974e-04  3.6593172590783764e-03  3.5969701790721778e-03  1.0920991786532758e-03  2.5901639814391113e-03  7.6672724073490774e-04  5.0191812339213111e-04  3.8906869608017732e-03  1.6576835681158682e-03  1.3825513553639755e-03  2.2439738956164653e-03  9.6966254381320805e-04  1.1701109648519755e-03  8.0800640588564747e-04  2.7319531095626832e-03  2.2764890385590028e-03  2.9578753968594740e-04  2.8483334669599058e-03  5.4377425062955087e-04  2.7386155365219998e-03  2.9494509541229670e-03  6.9842900309508482e-04  2.4609269327114394e-04  3.1161228196012304e-03  1.5263435917861556e-03  3.7409976423701209e-03  1.9383328971202506e-03  3.3496618855451397e-03  1.6310713713139065e-03  7.9939330994659554e-04  1.9643970421935768e-04  1.6400618695682301e-03  1.1240145472966453e-03  2.3970645336130630e-03  3.0598915002882261e-03  3.9988382523203072e-03  3.9608905475297636e-03  1.9522139307737798e-03  8.4247260379804025e-04  2.4660304751440028e-03  2.3753009835717469e-03  1.5436499825702591e-03  3.4207104686694473e-04  1.6036614441159430e-03  2.9868030650729606e-03  1.0492958885403932e-03  3.2432781570308506e-03  2.7945617446188510e-03  9.9317337410230531e-04  9.7419660407646515e-04  1.1436972836147493e-03  1.0768506629388473e-03  1.0832445699781260e-03  8.9671699321541018e-04  1.1757145051006254e-03  1.7024725542679847e-04  3.4654737077059214e-03  3.9577963499750476e-03  6.8673899435330965e-04  2.6708361132722937e-03  1.3964878916432977e-03  1.3202202264066647e-03  3.2881576843708676e-03  1.9250228643924985e-03  2.2808680816330544e-04  4.4272759051113310e-03  1.0649263943004162e-03  5.5996919546471907e-04  3.6896632214673875e-03  3.8804414902203778e-03  1.6573339923191266e-03  3.0308530507906084e-04  2.6678386594040297e-03  6.4740483243731588e-04  1.1441495644999161e-03  2.5945433945549364e-03  4.2968076376883151e-03  3.9995640876724558e-03  2.3673715864214540e-03  4.1875123757677164e-03  1.4653219193785445e-03  1.3663879223672864e-03  5.1576121912240555e-04  1.3715760657245001e-03  3.1947134771708325e-04  3.6327820934339583e-03  2.5383371273990183e-03  3.7814520877815245e-03  4.8263334301691619e-04  8.2188243268582555e-04  1.8833696851805830e-03  1.9354163034116334e-03  1.3757197756619037e-03  1.2605216261695673e-03  1.0936232257511174e-03  7.3021755625642061e-04  9.6351633599899239e-04  1.5377743104332008e-03  1.4729503924590952e-03  1.4979112621457482e-03  2.6442941646786226e-04  4.2726178244040210e-03  9.4756695149742355e-04  1.1236258169822204e-03  2.1660950476999947e-04  4.8001227981749805e-03  2.7978881787357264e-03  2.7710321102945488e-03  3.4965963419897063e-03  2.9895173736408694e-04  2.7636249468424808e-03  2.0033981490135544e-04  2.6453837311161362e-03  2.9910519073005600e-03  1.7121658362532842e-03  3.0807655847213495e-03  8.1034183132920167e-04  9.4328701825844023e-04  3.7585729742192478e-03  2.0867762809891484e-03  2.0428598731008717e-03  8.9685615379469358e-04  9.8798451814100744e-04  2.3678856857285674e-03  1.9814199681269977e-03  1.8445092498783331e-03  2.7444077136739779e-03  9.2303861638839849e-04  2.0108060728755736e-03  1.1531705935064766e-03  1.6990814944710310e-03  2.7270554933525419e-04  8.8049033793913159e-04  3.4376603296849386e-03  4.5140118143898985e-04  4.2218698514557548e-04  3.6168828299885984e-04  3.7882533454876955e-04  1.2454133694534317e-03  1.2802429369750754e-03  4.9121982251791900e-04  1.9014626654236884e-03  2.6247204718389825e-03  3.1398995835859680e-03  2.1154403347588991e-03  2.1532716711877170e-03  1.3582250129671924e-03  1.6481537543551249e-03  2.7268466586984580e-03  2.1004263332829494e-04  4.2530541313749353e-03  7.5285319370000151e-04  1.1297792817862632e-03  3.1913268863134800e-03  1.2769025235384915e-03  3.4441537661688390e-03  3.5003793745425906e-03  3.2830693494189139e-03  3.2820195078401134e-03  3.2134685682316754e-03  3.1500465714369916e-03  1.7529833761861452e-03  1.5040527025602622e-03  3.4254822490500567e-03  3.9074110523108427e-03  4.1102613561332171e-03  1.6672443017440349e-03  5.4756893622870634e-04  2.0381542612197775e-04  1.9417595047684514e-04  4.0216591211009491e-03  3.6462789225575436e-03  3.9192004917545523e-03  3.9638209713344086e-03  1.6012908317518818e-03  6.5100372696081819e-04  2.4692054716636152e-03  3.0331619231807746e-04  6.5438696798625806e-04  5.2629965027355412e-04  2.9535411701762703e-03  2.9611345991280274e-03  1.6979932678150267e-03  1.7135310250848063e-03  2.3653324960425008e-03  3.3520172722446579e-03  3.5023384692844024e-03  6.0388658633306303e-04  2.0747366530822535e-04  6.8668832340824048e-04  5.0608809270463891e-04  1.0758264490669772e-03  1.0532885085333299e-03  5.5311165412683593e-04  7.2961609253518697e-04  3.1450671877106275e-03  2.9034191419691109e-03  3.5798542119686752e-03  9.1318647327452902e-04  3.9892150327915463e-03  3.2122362676424488e-03  2.7754343567047441e-04  2.5939870153730586e-03  4.1004481646032988e-04  4.2551835225875080e-03  1.9560461770755426e-04  4.2420654265102426e-03  1.7400952472137524e-04  3.9030008872715759e-03  1.8809376024358834e-04  1.6540880066385137e-03  2.4261716675013772e-04  3.1738698717100739e-04  1.9264990695320718e-04  4.1369551517750356e-03  4.1974098357605702e-03  2.1725804239907648e-04  2.0152320872354911e-04  4.0679520963480837e-03  4.5896938337460175e-04  5.9838637523093141e-04  8.4439936023250790e-04  1.0011767982376835e-03  6.4306502563176728e-04  1.0288875221121760e-03  2.7437512280547153e-03  2.9158582927121981e-03  1.3073626968761320e-03  4.8745016160596559e-04  1.1988568041310385e-03  1.4518959380303109e-03  2.5923854450008111e-04  2.3694762853240774e-03  2.6707964187899047e-03  3.2602553162501759e-03  2.8395037348549713e-03  2.8807711247427893e-03  9.9502431188680583e-04  2.5959794749573746e-03  3.0368952738540748e-03  3.1829910132540676e-03  2.3346914560675833e-03  2.5968670501681267e-03  1.9343048224904512e-03  2.5103318965038096e-04  2.5319496478032784e-03  1.2366257677579762e-03  2.2723562452231223e-03  1.9804492248944581e-03  2.5601054028060620e-03  3.1177228491925859e-03  3.4751997150602575e-03  2.9487612929720614e-03  3.6615577290873775e-03  4.1873309155233339e-04  3.9439558454177313e-03  8.5135739990838957e-04  4.0753949700185078e-03  1.0593940885608715e-03  1.2351146044022874e-03  7.7473801960140760e-04  4.0115590721157869e-03  1.6986188018576231e-03  1.6153860509264023e-03  3.2038943415282780e-03  1.8572596328380907e-03  1.5348194886767401e-03  2.4656001766375653e-03  2.5409280996367923e-03  2.1716631708310625e-04  3.4179837271180319e-03  3.2190623176142916e-03  2.4882648769342449e-03  2.4420865630252185e-03  2.8522247034608100e-03  2.0568681780843800e-03  2.7121976473608376e-03  2.6714569686881818e-03  2.1201931659932758e-03  1.1427485755350693e-03  2.2152698779856752e-03  2.9826981959277975e-04  1.5530560572705016e-03  1.3058527325796772e-03  7.6959754929980747e-04  3.5315094946910862e-03  1.0365325621565725e-03  1.0073007453638768e-03  3.1540209513893731e-04  2.7757793054711461e-03  2.7676679867472327e-03  3.0562870325516705e-03  2.3406548631278164e-03  3.3011681984856299e-04  1.8686986877531088e-04  8.5328748300347130e-04  3.0254089666947649e-03  1.0852325694461521e-03  1.7073600608772460e-03  2.1815060917446292e-04  9.5510667064554978e-04  9.7162594893418811e-04  2.8241558102547648e-04  2.2398532069779604e-03  2.8020336325000751e-03  3.5919310854565143e-03  2.6615199838944275e-03  1.6327787073642907e-03  1.0365143515824824e-03  8.2992210554380327e-04  2.0733152737792944e-03  7.0558384904953009e-04  3.1553933677609457e-03  9.4122744294967444e-04  2.3746095370947551e-03  2.4727656120360957e-04  2.2227463156117401e-03  2.7488081485432920e-03  2.3199157043660977e-03  1.7192181504290327e-03  9.0505386739468414e-04  2.4505986706551889e-03  2.4648393125234918e-03  1.8405340969222662e-03  7.9645825997109424e-04  2.7273252492038356e-03  1.7336016062284446e-04  1.7555453641072681e-04  1.3834659064283980e-03  1.1675992963717568e-03  3.1016501402909009e-03  3.4757639587935205e-03  4.1319185374438768e-03  2.9731891399867464e-03  1.9224980945821061e-04  4.3012918723713111e-03  3.7588808410319737e-03  1.3239269720196187e-03  3.0304038702542598e-03  3.2631044051019543e-03  4.3720769186612121e-03  8.0866135929250386e-04  2.8309218102714252e-03  3.7532227967587502e-03  4.2115963984213489e-04  3.6272068236884850e-03  1.9923675846920545e-04  1.1406350170577407e-03  3.4900491400715952e-03  9.8477939755346137e-04  2.3599299499385117e-03  1.2879043546841463e-03  2.4644055767386753e-03  1.9995571784657139e-03  2.9089309406966244e-03  3.3785176126848967e-04  1.6586674466892960e-03  1.8922754447364683e-03  1.3840961588199214e-03  2.4591892854248462e-03  1.7004930560798213e-03  1.1488370540677490e-03  2.6279065113765285e-03  2.2685469743213031e-03  6.2575123732415720e-04  4.3706112839172412e-03  6.2631774772752818e-03  2.2397994553474418e-03  3.1758865390852141e-03  2.0952122649896023e-03  2.2040537384269061e-03  2.6422179566594063e-03  2.1631832270048554e-03  7.6486551782911898e-04  2.6957066705062755e-03  3.4449789563047325e-04  4.0359596689633467e-04  3.4896359562086982e-03  1.9546768954233820e-03  1.9976462496835456e-03  2.6617294770380556e-03  2.4564863082839573e-03  3.7490671304681684e-03  5.8910628185001430e-04  1.8829732766047140e-03  3.0159466883413655e-03  2.9234841567108670e-03  3.3547390000879408e-03  3.7813602842669087e-03  1.4050344969889607e-03  5.7041365000605011e-03  2.8544033601348526e-03  2.6029069067135696e-03  3.7850498701885783e-03  3.3296803580564094e-03  3.9609645986271799e-03  9.9441502154506175e-04  2.8822270146295357e-03  3.2776148510788227e-03  3.3480050369240360e-04  8.6338278291010957e-04  2.7025886947074297e-03  5.0578218377507088e-04  2.4296767024658862e-03  2.6181060136928549e-04  1.4115875923001238e-03  2.7330540695278236e-03  2.4356467456838215e-04  1.0229445940910598e-03  7.1623924709318936e-04  2.4245011265141756e-04  2.7286914192824661e-03  2.8867851243834634e-03  2.4719467957087099e-03  2.2078107363627617e-03  2.3919979266328853e-03  4.1801306962440041e-03  2.0962889917716895e-03  2.5881421828395142e-03  1.3426822349293451e-03  6.8053844048561408e-04  9.1211242895951230e-04  9.3180495040422445e-04  1.1936969956782869e-03  1.8585030020048438e-03  1.1895798894182299e-03  9.2711022356375017e-04  2.3409898122208291e-04  1.8137222779278088e-03  3.2648299877812309e-03  3.2224283899217067e-03  3.4081441615094353e-03  3.2143958836965934e-03  4.2095776183937623e-03  4.1554853344651531e-03  8.0541590780157542e-04  1.9459267304700002e-04  2.1519433047540652e-04  1.7600931950366411e-04  3.0764347165400437e-03  1.9717416203358118e-04  6.7437859640249640e-04  4.2468685577327454e-03  1.2368955118240519e-03  1.6890566949076429e-03  3.3885656101846878e-04  4.1454298810022431e-04  2.8734957231081079e-03  2.9599166967471352e-03  2.9109534995331774e-03  1.2745502662322946e-03  6.5432810955520847e-04  2.9652774191096091e-03  5.7630916618274790e-04  2.6700562607278149e-03  2.5006108829523808e-04  2.1905633039130101e-04  1.4696205382332907e-03  2.0222576631408226e-03  3.7205051473152076e-03  2.1524696453381659e-03  2.5135654025689852e-03  2.1964263654458745e-03  3.0313104169378863e-03  7.7164442256782593e-04  1.5751971015858649e-03  1.8469838362363069e-03  4.1521546141646036e-03  2.8403040756783140e-03  1.0528736054746495e-03  1.0018317103994115e-03  4.2116736053703476e-03  7.0766267874374476e-04  2.8499192391344625e-03  1.6890055342089257e-03  1.3299350695167547e-03  3.4301656261512630e-03  2.8016630698684728e-03  1.3178632070268621e-03  2.0939190060115213e-04  1.4950624513039488e-03  1.9641494660522203e-04  3.0494731917474565e-03  1.9259759644954101e-03  3.6175787299238043e-03  2.1269261755993449e-03  1.0109408397150