<?xml version="1.0"?>
<VTKFile type="UnstructuredGrid"  version="0.1"  >
<UnstructuredGrid>
<Piece  NumberOfPoints="2446" NumberOfCells="4585">
<Points>
<DataArray  type="Float64"  NumberOfComponents="3"  format="ascii">0 0.41 0  0 0 0  2.2 0 0  2.2 0.41 0  0.2404508497187474 0.2293892626146237 0  0.25 0.2 0  0.2404508497187474 0.1706107373853764 0  0.2154508497187474 0.1524471741852423 0  0.1845491502812526 0.1524471741852423 0  0.1595491502812526 0.1706107373853764 0  0.15 0.2 0  0.1595491502812526 0.2293892626146237 0  0.1845491502812527 0.2475528258147577 0  0.2154508497187474 0.2475528258147577 0  1.1 0 0  1.1 0.41 0  0 0.205 0  0.55 0 0  0.55 0.41 0  0.275 0 0  0.275 0.41 0  1.65 0.41 0  1.65 0 0  0.8250000000000001 0.41 0  0.8250000000000001 0 0  1.375 0 0  1.375 0.41 0  1.925 0 0  1.925 0.41 0  1.5125 0.205 0  1.7875 0.205 0  0.6875 0.205 0  0.9625000000000001 0.205 0  1.2375 0.205 0  2.2 0.205 0  0.4687002074688797 0.2068568464730291 0  1.99375 0.2152743902439024 0  2.0625 0 0  2.0625 0.41 0  2.2 0.3075 0  0.4125 0 0  0.4125 0.41 0  1.7875 0.41 0  1.375 0.1486128048780488 0  1.5125 0 0  1.7875 0 0  1.5125 0.41 0  0.8250000000000001 0.2613871951219511 0  0.9625000000000001 0.41 0  0.9625000000000001 0 0  0.6875 0.41 0  0.6875 0 0  0.1375 0 0  0.1375 0.41 0  1.2375 0 0  1.1 0.1486128048780487 0  1.2375 0.41 0  1.65 0.1486128048780487 0  1.126715909090909 0.2793064024390244 0  1.676715909090909 0.2793064024390244 0  0.8517159090909092 0.1306935975609756 0  1.348284090909091 0.2793064024390244 0  0.34375 0.3032389320646208 0  1.894702181800738 0.1282910975492754 0  2.092797818199262 0.1282910975492754 0  1.85625 0.3075 0  0.61875 0.3075 0  0.61875 0.1025 0  0.3648540804333487 0.1240075933101478 0  0 0.3075 0  0 0.1025 0  2.099172119769978 0.25625 0  0.48125 0.09238439620688085 0  0.5781001037344399 0.2059284232365146 0  0.48125 0.3196743479159776 0  0.7265881057911006 0.3055240343720796 0  1.99375 0.08395950269330846 0  1.459960956013612 0.3075 0  1.569025960719943 0.2986889805672169 0  0.75625 0.08213100772579164 0  1.03125 0.3278689922742084 0  0.923871252904788 0.3078247185783941 0  1.959375 0.3126371951219512 0  1.749222215368287 0.1025 0  1.275777784631713 0.1025 0  2.2 0.1025 0  1.225938124459196 0.3075 0  1.550777784631713 0.1025 0  1.000777784631713 0.1025 0  1.44375 0.07430640243902442 0  1.16875 0.07430640243902437 0  1.899250267340833 0.2229966846119207 0  0.1020898364287272 0.3140258291809757 0  1.766482954545455 0.2934032012195123 0  0.3405058858996321 0.2119987970531874 0  0.7710785630958338 0.1710968191298857 0  1.046078563095834 0.2389031808701144 0  0.2 0.3400647632937836 0  1.421109702350723 0.2261157654379721 0  0.2800464974185557 0.08982544815605742 0  0.098916018031319 0.09171660955420841 0  2.13125 0 0  2.118919042110979 0.3422084711244843 0  1.30625 0.41 0  0.89375 0 0  1.597888256393107 0.2173787389261347 0  0.20625 0 0  1.829299675393195 0.07400700849299596 0  1.71875 0.41 0  1.16875 0.41 0  2.038220665644273 0.332420740103091 0  0.34375 0 0  0.417496017710808 0.2696595573092803 0  0.2 0.07687845740457822 0  0.9295982307099278 0.1343158415898188 0  0.07390688010811153 0.1697064032433452 0  0.5238366813727013 0.2578302467013575 0  0.05452951551825875 0.25625 0  0.5229630068078351 0.1548816096928243 0  1.452769549894695 0.1548122580621249 0  1.369219062229598 0.07430640243902442 0  1.30625 0 0  0.8504409521244898 0.3356935975609756 0  0.8821881244591965 0.205 0  1.720943423819132 0.1714577452753128 0  1.157188124459196 0.205 0  1.094219062229598 0.07430640243902437 0  1.03125 0 0  1.304056576180868 0.1714577452753128 0  1.67579304192913 0.07430640243902437 0  0.2751941921308361 0.3346083473122598 0  1.209670467133757 0.1362100266964769 0  1.025335513626278 0.1700681449722324 0  0.7562500000000001 0.41 0  1.58125 0 0  0.7567170593862014 0.2409196493502535 0  0.6926714215682891 0.1272249611432207 0  0.4139715849905988 0.3397932387114203 0  0.9840787304190477 0.2717749043358119 0  0.06875000000000001 0.41 0  0 0.35875 0  0.9281250000000001 0.06276726142697993 0  0.5507396469029935 0.3219409231578227 0  0.5504468037989405 0.09136885600634273 0  1.58125 0.41 0  1.631724228912893 0.3381867502687533 0  1.825608881788174 0.14499488549201 0  1.85625 0 0  1.44375 0 0  1.44375 0.41 0  1.85625 0.41 0  2.13125 0.41 0  0.7562500000000001 0 0  0.89375 0.41 0  0.4812500000000001 0 0  0.34375 0.41 0  0.4812500000000001 0.41 0  0.20625 0.41 0  0.06875000000000001 0 0  1.16875 0 0  0.61875 0 0  0.61875 0.41 0  1.03125 0.41 0  1.71875 0 0  1.99375 0 0  1.99375 0.41 0  1.340625 0.3489494290853124 0  1.134375 0.3489494290853123 0  1.700180620188976 0.3438659752031281 0  2.135782184673599 0.07126652247502523 0  1.668441847249787 0.2129203728327609 0  1.295782514339747 0.2378437748815763 0  0.8233075729931248 0.06842334294821524 0  1.409375 0.3520314716057996 0  0.403505597322782 0.182067236678212 0  0.378125 0.05794951541303489 0  0.3043468223249023 0.1518321115979534 0  2.129248544730567 0.1906135162504124 0  2.060771381434487 0.1989445750470348 0  2.013252586573865 0.1496169464686054 0  1.942766402200229 0.1734448904596831 0  1.895522487186454 0.06076163953489683 0  2.069553871656643 0.06605731020975725 0  1.274680914880868 0.3520219391081363 0  1.614713220494657 0.09473434380863296 0  0.7899021319497519 0.3149123934144827 0  0.69518737419149 0.0634051089053758 0  0.2971740475496061 0.2592172353407536 0  1.72990325744076 0.2380068107952482 0  1.356580098625191 0.2120393231351682 0  2.034370752044885 0.2668681600792073 0  1.51768709249349 0.3426260931494756 0  1.561883724969884 0.1650446847858835 0  1.197344062229598 0.2523725417393646 0  1.804085235518364 0.3468178408964637 0  1.817887819205233 0.2589243285818559 0  1.905897727272727 0.3485060975609756 0  0.6719798073392919 0.2688965171178177 0  0 0.05125 0  0.653125 0.35875 0  0.6396896119294488 0.1627615407790282 0  0.4274150154087412 0.1242548552168279 0  1.192836486056382 0.3562350748565544 0  0.8279124365364005 0.183856489168822 0  1.097485222388854 0.2083571153401724 0  1.28257088594801 0.2944411014911587 0  1.474860187679412 0.2504218616229368 0  1.406767003493824 0.2829282258560709 0  0.446875 0.04619219810344041 0  0.515625 0.04585361801037557 0  0.592043440706648 0.05125 0  1.845656689180403 0.1998310418452388 0  2.144958525570388 0.2909790873294231 0  0.6171090763650112 0.2492366900333857 0  2.2 0.15375 0  0.5145586920831158 0.3648371739579888 0  1.57794966442982 0.3540357145964566 0  0.721875 0.3633107922168974 0  0.0496154796471391 0.333125 0  0.5843750000000001 0.3662560860076676 0  0.5810878747760798 0.1474002776121195 0  1.508991196088596 0.1421783375065625 0  0.8840670607017558 0.2640994375393898 0  0.09776612425612034 0.2204896805326566 0  1.50436820029908 0.06143401634903343 0  1.223857000523521 0.0823554862453532 0  1.153316824384777 0.1289850171317837 0  2.148922302309752 0.1258841779285271 0  0.309375 0.04312325590431198 0  1.621993280276081 0.2841214267927899 0  1.550118654119087 0.2461998729100966 0  1.327182649291491 0.1216967252533594 0  1.051977450479407 0.1221382572915816 0  1.753125 0.04556020050186112 0  1.271875 0.04556020050186116 0  0.9816084133102366 0.05126138213476004 0  1.039051841454368 0.0572224914831029 0  0.9719230514536006 0.3480477870845102 0  1.94956388244759 0.1180512551534177 0  1.949997712993411 0.04965831614304109 0  1.771961817615021 0.1530278789497521 0  1.909246823951428 0.2812757146784527 0  0.2459536687882397 0.04668633953831142 0  1.948575539857022 0.2445328248721197 0  1.697271520964565 0.1233917627620729 0  0.7964897648514618 0.1211426571931604 0  1.065625 0.3689344961371042 0  1.085849084308977 0.3170853572226867 0  0.4702981435440001 0.260434880697798 0  1.577403511714593 0.05463601888079143 0  0.05622663515370135 0.05493816910862376 0  0.3267207591099919 0.3566194660323104 0  0.9003051618565143 0.3564049499960621 0  1.751571320346033 0.3651102912045228 0  0.1583785085108421 0.2994699345738728 0  0.1455283439499995 0.3542795598723423 0  2.2 0.35875 0  0.2347662494194072 0.298325008655211 0  0.1527284455616188 0.1065771775690181 0  0.1382139529076665 0.05427454456341477 0  0.8749341636311069 0.05110114999892954 0  0.643661668713109 0.05693499781019222 0  1.466879772203159 0.3611261772912453 0  1.990280163552011 0.3564754268533217 0  1.17471064520912 0.2990917256188288 0  0.5202693090594349 0.206382495511728 0  0 0.25625 0  2.2 0.25625 0  2.2 0.05125 0  0 0.15375 0  1.853978576207987 0.35875 0  0.9787513713939683 0.1487523696999336 0  0.240625 0.3722153812029779 0  1.515638456102889 0.2882700110184686 0  0.09048297387599738 0.3637717362208066 0  2.150453692751374 0.2387066338105111 0  1.323782677156475 0.04897634338873398 0  0.8074131292871642 0.3624701995505916 0  1.409375 0.03715320121951221 0  1.406484531114799 0.1087852750766809 0  1.134375 0.03715320121951218 0  1.627401732573545 0.04552157221025036 0  0.1170173172005315 0.1427610859166811 0  2.045405893604797 0.1105340662939892 0  1.255408269734577 0.1577307500159216 0  2.028125 0.03707597992059326 0  0.4743610090857199 0.1421513964721819 0  0.9354010469015898 0.250631300585664 0  0.04420832937638274 0.128125 0  0.8922386349349938 0.0992956419364831 0  0.1197849154434487 0.2663398672460083 0  1.248258025468107 0.2565907092181813 0  0.3746885856929528 0.370723531618974 0  1.203125 0.0366132337404304 0  0.5724622277005015 0.2751253816079333 0  0.3365425205162783 0.08395777655057959 0  2.072662025974815 0.2975086504196739 0  0.4581080832182547 0.3648371739579888 0  0.3874522734668214 0.2295447548840689 0  0.7827853612484443 0.04106550386289586 0  1.887722846421017 0.1760882698830035 0  1.472640588990488 0.1118278026240017 0  1.865937103925594 0.2604137786483804 0  1.463913572748262 0.2030442564990043 0  1.376426316059077 0.3186741374914345 0  0.6641993820150034 0.3141688596240831 0  0.2943117490824315 0.2130987422685822 0  0.3478153998082709 0.1666571081082676 0  0.3427990510599805 0.2575950027870776 0  0.7997118993855807 0.2216171933356366 0  
[...]
<PointData  Scalars="f_10-1"> 
<DataArray  type="Float64"  Name="f_10-1"  format="ascii">1.4866993841665288e-04  1.0588211030732185e-06  6.5385030443326030e-25  1.8797701248000407e-24  1.7228777668292687e-03  1.0852206005488533e-03  4.3923667876027267e-04  9.7643352422307727e-05  5.3960884561129678e-05  8.3240085798327965e-05  1.6327271628120365e-04  4.7814110379166934e-04  1.1747705575998243e-03  1.7616309069951525e-03  1.1369537014965664e-08  1.6866002506544678e-07  4.1452663191609894e-05  5.5064865470375745e-06  1.8278757104145543e-03  3.3367854961852282e-06  3.5239981215029396e-03  4.5655011035201351e-15  8.3384623065135152e-16  7.0179844525930342e-05  1.5655295507421312e-06  7.3719377887668616e-12  5.6557023655519869e-11  3.5290566453496431e-20  1.1278772306922012e-19  2.5318288922539228e-12  1.4144754544181462e-16  4.6467559175727031e-04  8.4374415978819738e-06  1.1572893282346175e-08  1.2640184307655727e-23  1.3944093966259162e-03  4.6151119344736911e-20  1.4684879281239478e-22  3.6246553154543395e-22  1.0727803793705259e-23  4.4617257201792518e-06  3.2309255346568179e-03  2.0293985563014764e-17  1.2619043668373635e-10  9.7439666235302803e-14  5.2982438587215895e-18  5.9919157050576708e-13  1.3896638684289802e-04  4.5883241389517134e-06  1.9259542362537211e-07  5.1353381494092468e-04  4.9230726672860985e-06  1.6000212414411769e-06  1.9012402025850193e-03  3.8753465142563481e-10  2.2516064411802564e-07  3.9218082567024472e-09  1.4089335306474321e-14  3.0132977744904641e-07  9.6846103422797443e-15  2.1180940186137945e-05  6.0020294033618794e-10  3.5662438352410510e-03  1.2577083292120637e-18  4.6173284921650644e-22  1.0686833419550335e-17  1.5725103143534734e-03  9.6082367905980128e-05  7.1989356989237790e-05  7.5399275095670948e-05  7.3923849284418388e-06  7.0320515499697043e-22  5.4784263129198703e-05  9.8973802324896654e-04  3.0600418932652789e-03  5.7544016206080724e-04  1.5877763994036092e-20  1.6587647637659068e-11  4.2566686267720411e-13  2.3395778197697348e-05  2.7466950767266507e-06  2.7808419078361049e-05  1.8070542918151924e-19  2.3527730990623771e-16  1.2478369346225356e-09  6.0669163749174857e-24  2.1117428242678672e-08  2.5933743892172755e-13  9.4643563005383426e-07  5.4155673259205900e-12  1.2592702184272846e-08  2.0342485785860246e-18  4.1559200629211028e-03  3.3674838779240711e-16  1.6921541296167546e-03  1.2154706121965927e-04  1.8435769453810487e-06  4.6816214104124657e-03  5.5187740017697710e-11  2.0429043356951459e-05  6.6462887179647068e-06  7.1048445828964344e-24  1.9282365646989018e-22  4.8949200271412202e-10  5.8908228407840910e-07  1.4305216172632144e-13  2.4554996377082715e-06  7.9593728611103914e-18  3.6343136812755485e-16  2.7761428055022149e-08  5.7750983268153186e-21  4.1181986264510634e-06  2.9668621909617540e-03  1.2567635965116056e-05  6.3505143693178080e-06  2.4304974443956311e-05  2.1323573556806239e-03  9.3000336253332914e-05  4.4303500206315546e-04  1.1774236173709117e-11  5.1966608462956021e-11  5.0516387095097923e-11  9.4279829657940828e-05  3.6672347029522202e-05  1.3151022516210251e-15  9.8001873725614277e-08  7.5547711674781048e-08  5.4062032703184784e-08  1.3172003923004315e-09  2.2149190549282060e-15  4.0680300425218040e-03  1.2055155468297204e-08  1.5965425763084972e-06  2.0004950963630321e-04  1.0179535464212272e-14  3.1412234385049773e-04  1.1904366451048820e-04  3.5213289643125823e-03  8.1113780333352338e-06  5.1957223132127587e-04  9.8777630404126625e-05  1.5401208265545004e-06  2.3763848192164807e-03  7.0073361251030979e-05  5.2942671055190329e-14  3.6252630111539085e-14  2.1483121832575071e-17  4.2098346910623102e-19  7.7070376684738856e-13  6.5123361527411133e-12  1.7714306190368309e-18  2.2934674354668961e-23  3.0848779990735278e-06  1.9143075981638461e-05  4.6772137403058333e-06  3.5432602768693338e-03  2.6060516264247392e-03  3.0403931619813517e-03  1.1586539706059203e-06  2.3991933569161817e-09  5.9048284072103818e-06  1.0704410770052742e-03  9.4189955964860036e-07  7.2522782656289416e-17  1.9858188718725287e-21  7.1318449618003281e-21  5.4855617694386135e-10  1.9139500190935920e-07  2.7827550777081129e-15  4.0206820495232305e-23  1.1444243337768187e-14  2.7026614262148023e-09  7.9952492984279185e-06  6.1667470502529378e-11  8.3535050659352766e-04  9.8331193557121022e-06  1.9455068376608532e-04  1.6707456881755810e-22  2.8302640604371377e-21  1.4160154185736588e-20  2.8766505283653440e-19  5.2340861243265795e-19  5.5261026867376093e-22  3.8827154055049600e-09  2.5844858279394833e-14  2.5488792372704660e-04  2.2427743201089599e-05  2.5937623866400957e-03  1.3590537153984219e-15  3.8192690539318604e-10  9.7002903571123328e-21  1.8817578163055278e-12  3.5536869411983257e-13  4.5353705495361986e-08  5.5019758697831814e-17  4.7994469204617619e-17  1.0218783401329442e-18  9.1563506514420799e-04  2.3403076049852500e-06  1.0786887720591872e-03  3.5039646264063977e-04  1.2132324170198333e-04  3.7585343551388719e-08  6.8420152118645411e-05  4.4613916456522867e-07  4.3186742900819316e-09  1.0702804695682277e-11  9.7463994221171666e-11  8.7167665060789430e-06  1.3460577375956004e-05  1.9295409794989901e-05  1.4332092971820742e-17  9.9130026055887792e-23  1.2469821771474215e-03  9.1769256821058843e-24  2.6173613902861570e-03  1.9448725856063546e-13  5.0354992978014670e-04  3.4900216733828202e-04  1.7823815578166928e-03  3.3559776794489575e-04  1.6636812209047681e-12  5.3614337489507002e-05  1.5430550237240071e-04  6.0328677538189300e-13  3.6753127239047354e-09  4.6823808292603251e-08  4.5894115327342099e-23  6.5420316160318981e-06  6.8963470888876853e-14  8.3328764759781685e-13  3.7108494386777273e-10  4.5823950338163975e-07  7.6527727330647561e-17  4.7174733759687611e-10  4.5821352058461138e-07  1.7002885420323946e-07  8.7600438522443735e-06  1.3356000355233694e-19  4.8547743313910912e-20  1.7167682587915197e-16  1.4052284547548036e-18  6.4769134029617050e-06  2.9533857929047467e-19  1.9850515169759785e-15  3.7504641182588122e-05  8.3519520028489193e-07  7.8252952225445322e-07  2.5430350366242643e-03  4.7265925548110577e-14  2.6396017989024696e-06  3.8112911813177617e-03  3.3961184417584423e-05  2.8819439428605815e-16  5.0125622324680491e-03  3.9897515901525290e-03  6.2647515700388881e-24  3.4323839715405210e-03  1.5004617385952182e-05  4.0276503737299898e-06  2.5896886549181880e-06  2.1970713925842812e-05  8.3122121857220910e-12  3.1652495845407437e-20  8.6298886568576154e-08  1.2367032907704733e-03  7.5139511893962263e-05  1.3194761357959190e-23  2.7114437983363961e-24  1.9256253289382100e-05  6.7086197994194223e-18  3.1388441217851345e-06  3.7701858352081029e-03  2.6790115835635230e-12  1.2212027662801806e-03  8.2378967320404162e-23  1.2098161704511249e-10  1.5672449455711673e-04  6.8263736727035295e-12  2.9116149648225533e-11  1.2500378620667246e-08  6.9650058308538361e-15  1.9541561883134284e-05  2.7105657755641732e-21  4.4899910883735477e-09  1.6106079438175755e-21  2.9489597916514799e-04  2.0035441056734389e-05  1.2282788600658850e-05  6.1995318266764182e-06  3.0811650851631104e-03  1.1298423051842556e-08  3.6121108906971250e-03  2.3659632828977920e-09  1.9101600170266465e-03  1.8281951951582957e-05  1.8955869107738915e-21  3.1580412784774541e-03  2.1721091045330456e-03  5.9681043869827955e-06  2.5616931634538315e-18  3.7208605417757853e-12  7.9025794495018363e-18  1.2204645060964846e-11  2.3176275042778158e-10  1.0954687405571671e-03  1.5853008687856055e-03  3.6328333528149170e-04  2.8556998279673819e-03  1.5374491358076468e-04  1.7818877354053994e-15  2.6006129637701035e-16  7.2860648501686762e-23  1.9937160109421525e-04  7.5876851378393705e-05  4.6589611336049917e-06  3.1236747350160752e-06  7.1339788416010497e-07  9.8262102778366026e-11  9.5589794581271638e-05  1.6884778483849866e-21  6.9094222116738208e-14  7.0966142009762888e-04  5.4111259341861205e-04  5.7510787865474552e-17  4.3844491820013652e-05  5.7718394330687972e-20  3.4324752037515543e-23  9.2642046255660266e-23  8.6825775980728983e-22  1.9708916241768945e-06  8.8921423027346667e-06  1.5602267108450619e-14  5.2216707781215960e-17  2.8363506021707135e-20  2.0054011422505223e-06  2.0110772264551064e-10  2.7905172695589798e-08  2.8437119375002591e-13  3.7821166584452563e-14  1.8014818430605639e-13  3.6418893077627275e-05  2.3266584089577197e-16  3.9179323657392587e-16  2.1710010454420114e-06  2.9524404756246587e-06  7.1770277659772049e-24  1.9197617909134725e-23  2.1997940670358542e-04  6.3320543030062022e-05  2.7882444635571741e-04  1.4083943006863496e-05  2.1239856631273143e-05  4.1953051196762269e-14  1.4446715873250190e-17  2.4809825966855276e-18  3.3559820814847724e-14  1.3677532183108627e-19  1.7281262228016122e-03  3.1701182641855213e-05  6.3751875995017397e-18  4.5857805893924182e-08  9.2119797766794792e-16  7.3176782630739785e-15  1.5034143164900474e-06  2.2482687669716959e-05  2.5793812481378184e-03  2.5641970437514352e-21  9.9030978707678068e-06  6.3074848423807490e-13  9.8316196353298942e-09  6.2592668734607853e-22  1.2346142874665480e-12  3.8203085856488448e-06  6.6074067770834003e-07  6.7022139395285550e-04  2.1463718458739182e-13  2.6224266874492065e-04  3.4791227077947055e-03  3.2838013042629779e-03  2.5054739849932593e-04  4.5173315803746144e-08  7.4106818787227281e-05  2.4810950655996938e-07  1.1468750224458499e-07  3.6049073147735434e-05  3.8964482343954848e-23  1.3020360376013699e-09  9.0737270313388875e-21  9.7950857055938571e-05  4.2837179469492992e-19  1.4754595601606570e-18  1.2359230503927122e-19  1.9871238781598625e-19  9.4103910517529315e-13  7.1220613072804387e-16  1.4095204393252748e-15  8.0480899224442297e-15  1.0831416359517457e-06  5.4103074148630615e-05  3.5345360591288472e-03  1.5422052274788878e-04  3.5400086082950744e-21  3.7174264467492961e-11  2.7275559005722158e-04  6.7725522411103032e-06  1.4793106613422377e-03  1.2031907759792462e-05  4.0258308686303475e-03  5.5948835772747819e-17  4.7812284884177970e-05  1.3748666940128841e-05  8.1649881122828336e-04  4.3718373492992497e-12  2.2818374978175390e-05  1.2194977909858177e-07  9.3928578311044691e-06  2.9019825084868201e-21  2.9980515941204684e-11  3.7729599192192704e-03  3.4891456219316177e-03  2.9745652147869213e-12  3.5758793650665340e-03  5.5964087961046750e-04  7.9641454964741467e-04  1.6782211865766457e-04  6.5546091202427984e-04  5.6630429070483900e-05  2.7059254311404316e-03  1.5137656262112647e-03  5.5138846809067969e-05  5.0710757376787378e-05  1.4152665695948470e-13  6.0173729503777765e-16  3.6452269582436775e-09  6.1907407180637026e-16  1.2018905095374864e-09  9.4854950617558080e-11  2.9872178807106012e-11  1.7036736596868372e-07  4.3727017598202808e-15  4.1290139723643814e-10  7.0052210965571892e-20  1.4134166719359520e-05  3.7393631929022622e-03  1.1716222691474002e-08  3.9639815458644161e-09  6.3153934284739649e-06  4.3498703914478026e-03  1.2375732144012490e-13  1.1415661642740036e-14  3.0138193437588751e-03  3.1402863028101974e-05  2.3691080490439291e-03  4.2064240618172115e-06  1.8756389962462652e-03  2.4674380956985397e-14  1.2615086026945622e-13  7.1733796379742106e-13  1.6075514357776025e-04  1.6059573642843862e-18  4.3119609490695882e-04  3.0060082730279946e-21  1.2681051979781412e-20  3.5149536055446018e-10  5.8451000601677703e-04  4.4121051535728206e-22  3.0864234598369191e-22  4.3117234615504232e-23  2.2658216476912850e-16  1.8674398617014705e-13  2.1195605769419262e-06  1.3263178948142833e-06  3.7807637436269443e-06  1.0104783849232214e-05  1.5802888008047523e-11  4.7677272383436920e-07  5.1585782782326882e-07  1.0316604680048971e-06  9.9264892822064071e-07  2.6752267620124841e-06  1.7342103851192734e-23  1.2153025158207608e-22  1.5102223320454497e-07  1.9783516806470465e-19  1.6295826049126875e-22  4.2251257426676218e-04  3.2176317022441570e-08  1.7887776117533773e-05  5.3475192524496378e-18  6.4986192749049444e-17  1.4292327395098135e-03  7.6760065727798289e-06  3.3498444642489980e-03  3.4094330250464862e-06  7.2418391848060959e-04  1.4036335331629125e-05  6.3477192538915261e-05  6.6737994025885039e-08  7.1086478060448737e-08  1.0500386860671352e-09  1.5846622668434002e-10  1.4189577199408003e-10  2.0377842255571564e-07  3.0210432934404690e-11  1.7450760545421559e-22  9.9476607992369410e-09  1.2108497966735807e-04  2.2663710120569185e-03  1.2109482966877589e-03  2.2532225412445124e-04  6.7074745273900665e-06  4.2628347485413484e-06  2.7574669466418622e-03  2.4443892526723981e-03  1.9405957565732936e-03  1.5050195283291905e-03  8.5290560278770689e-18  8.7828846923815423e-10  9.8598177457585878e-06  4.6691130174881214e-05  2.1869623824773179e-04  1.2552931910231714e-04  7.7439327777646374e-11  1.1383423369800835e-15  4.0709691307354065e-20  9.6326066172046566e-21  1.8406003873458649e-19  1.3395223184982674e-09  1.9043934090616746e-07  5.2123311882414269e-09  7.6668254280167098e-06  1.9109641169197654e-11  2.5704813930797231e-08  1.7866483273451792e-24  2.9913467064497552e-23  5.2853724661935514e-09  2.6416070376972692e-12  2.0034432233003127e-12  9.5764807072853168e-17  4.0819194318478962e-07  2.3697222508942761e-17  3.3676460491766514e-04  1.7600755754653238e-11  4.0673764970714692e-06  5.7600998939088654e-24  3.6113606357561657e-07  3.4261534707091344e-03  4.4305617062954038e-06  2.9543102414300122e-03  1.3258947136878376e-06  3.3571263165150613e-03  2.7948680088599969e-06  1.1107519757640268e-03  5.4002964401408764e-06  2.2463396522692390e-06  3.7669040552704461e-06  1.4100271754803920e-03  2.2154525573650405e-03  5.6643616153080893e-06  4.8501163576410086e-06  7.4376788902275916e-04  1.0839666732068500e-07  8.9092688126355571e-10  2.9652082683789258e-15  8.0320857199363307e-21  1.3996146510794863e-10  5.2542935882919800e-22  2.7454978727012598e-20  8.8061628407228299e-16  1.0950192604490173e-20  1.3927927546091597e-05  1.2837460788825448e-11  4.4237491099669701e-08  2.6783867546222016e-05  8.8436422959668148e-10  1.7920933583862763e-09  8.9678851341595464e-08  1.1614616793866397e-12  5.1320960995951509e-12  1.5262922025835612e-19  2.2271525823876412e-03  2.5027772449711102e-11  2.1551464138045718e-11  4.0170494910977664e-15  2.4627616595933304e-18  2.8234374317354451e-15  1.6826220516724416e-05  7.5211091043119144e-04  1.3245074949799829e-17  1.2948612848675450e-14  1.3263415991162422e-09  6.7737550827282675e-19  2.1881322760035231e-12  1.5403378675050592e-04  1.3003021505647851e-06  4.9050943845379733e-06  5.6145933428761753e-05  3.5351866417680485e-03  1.1909270467557617e-14  1.2333343164253698e-03  3.8238656635462011e-22  4.1877834504453752e-22  3.9159023006928789e-07  7.1100347520815644e-04  2.4121507262189974e-10  1.2314616579914435e-03  1.0498477465763220e-08  6.9870036457875388e-19  7.6157663483114967e-19  1.9374342769360848e-03  8.6715712864376239e-22  6.6551636591931386e-06  1.2407268891590413e-03  6.9118415575858980e-04  3.3091487975123286e-05  7.5537369746888380e-21  2.8397014300654258e-17  1.0487113773933160e-06  2.1233766852099619e-17  4.2324329629866182e-15  1.8427205038032389e-17  5.3292674833909972e-20  3.9181705575563255e-23  4.9388301509148718e-05  6.9274786515859841e-06  1.8690810813574322e-13  1.9983531550858107e-05  1.8172054023532824e-05  7.5961608507615521e-14  7.5338440699636692e-15  3.5818913477362120e-05  4.8775952060125464e-19  2.3208477754889873e-03  1.9545182721813225e-13  1.8934709637583355e-03  6.1431077024516351e-05  2.5640723043130829e-06  2.3655080325282868e-04  6.5839256044620177e-14  9.6909531492611021e-08  1.0545226463076826e-12  8.8198923960719724e-06  1.5921211826686401e-10  2.9186484583582845e-06  7.4572737064290068e-06  9.6707622924425377e-04  1.8016141889321951e-18  8.1172995444791271e-04  2.9713760681311451e-19  1.1613818497631223e-08  1.0709348143207448e-05  3.5386822507747935e-14  6.1497608933165416e-17  1.6242602611109810e-07  4.3858854868184567e-08  5.9247505221310945e-04  7.1307306602537167e-16  1.1236678895800361e-05  7.2880727671909618e-09  2.4770256470673877e-08  8.3187166644022121e-08  1.1772041431645294e-14  1.8591791107269332e-12  1.2281865832227393e-16  2.4255639608815471e-17  7.9211451769357342e-22  3.3912562068271117e-13  2.9890218796797367e-20  1.3656147957367942e-06  1.5499480484491557e-06  5.7316456487328332e-13  7.0134219633547642e-19  2.8867374412950675e-09  3.0530007695659428e-03  3.2888829128146480e-03  6.3629209814020072e-13  3.3324846956166602e-06  3.7972857019498069e-03  2.9925666355207635e-03  3.8832218680173801e-20  2.4233486586098586e-03  2.9417624570488427e-10  3.9025940033349310e-03  1.3038593740683890e-09  6.1627084062547314e-18  1.8915559697008366e-05  5.2202274926848403e-05  3.2040612454817185e-03  5.3323274422988705e-06  1.6738741020982716e-22  3.9038230569675859e-04  4.7085450061072213e-18  2.0668990800682714e-08  2.3290837317781946e-14  4.7077527931779050e-18  1.2870279377738188e-23  6.2751998271297758e-07  4.7763414940963605e-05  3.3863221077419185e-07  2.0106793773208761e-07  3.5964440849607562e-05  2.7925123659188418e-14  4.6118618724050276e-04  1.0796622512542363e-23  3.5568103015210684e-06  2.8606790293132610e-21  4.2794455535291724e-07  3.8758896645570522e-03  5.8076937992156841e-03  2.4562369371425921e-18  4.5133994044429550e-05  1.3134493659312744e-10  2.1228486168624835e-11  1.1455108145021462e-11  5.3390267294801878e-12  2.1827088982743117e-12  4.9429110912804428e-18  3.0111589276994907e-06  2.0876308023152603e-05  5.0468654622337728e-06  1.7319105011495215e-04  6.0776322118317631e-05  2.4112073280415400e-10  6.3765778376143138e-11  2.8975313443523396e-04  3.0599512972341922e-08  4.5895743819750756e-18  2.2226155653341619e-05  1.0531248885519741e-03  1.6100477421067648e-03  6.2056093333940070e-04  7.0294987075682869e-24  5.2651437483305242e-03  1.0708893445761684e-08  4.7852734436365970e-09  9.8295153630944873e-05  1.9075194612689436e-09  3.1983731231085291e-04  2.5586924541537061e-16  9.0152783583648434e-05  3.7797822068710122e-07  3.6600644097465937e-05  4.8585617250831558e-04  8.2794447977531126e-21  7.5162073928857503e-08  1.1290072581709317e-04  2.5604387485759015e-05  4.4581662638377660e-12  3.3295485344520504e-14  2.1829987087936162e-05  7.2421529338199782e-05  4.2060475688393210e-05  2.0763593726434646e-05  2.3585492549782956e-03  8.1948720767424277e-17  1.1490123630902780e-22  1.9093289900518189e-22  3.0489688875201164e-23  2.1902955497564232e-03  5.9045940634960244e-18  5.2250441044233607e-20  7.2953702515141086e-07  1.3954375365992255e-10  7.8694763404856808e-17  1.9938684991279139e-17  6.9439987114518762e-14  3.2008031188322740e-04  2.3909686217904840e-08  2.3935244601244028e-08  1.3326441885379281e-05  5.7109635965923565e-10  2.1406621855687132e-08  1.6087937011498275e-06  1.1215616202567669e-06  1.8828798226072115e-04  2.7913468926676777e-03  3.0196285357863362e-03  5.4981795168506207e-10  3.4714157973026330e-06  7.3303741290006808e-06  1.5697014927563446e-06  2.5493973111777772e-03  4.4035307384375507e-06  2.8974203838588482e-08  3.6443425048382494e-03  1.2645768075534805e-04  1.0208402519673551e-23  2.2925167785784122e-05  5.6277920854316848e-05  2.9056033526781749e-13  7.2877083671267028e-14  2.5385243911344143e-03  3.9223625819669322e-19  1.9021401564865958e-04  2.4256492291726199e-03  7.8736760626912447e-05  2.1912590783174932e-03  1.1318172444494720e-05  6.4882250025776907e-06  2.4844679080299126e-19  9.6909058028841972e-22  2.0847765316621861e-03  1.5937596679886314e-12  5.1654499493935112e-13  3.2842823596379867e-13  5.3954038022874131e-10  6.2756417862819865e-09  5.1015136207922327e-14  4.4758202626459958e-17  1.8839825648188223e-03  1.1835736106225633e-16  1.6132569764566342e-19  4.7469069007501057e-20  3.6388112689152764e-03  3.4347066220382559e-04  9.4247974917769842e-16  1.0359218982311142e-04  2.1686161297921251e-16  2.5030409678280785e-08  4.4509101313273436e-11  1.1965785055201822e-05  6.9445267548055703e-06  3.0524039259039977e-18  4.5373708592759949e-06  7.2777198775166643e-09  1.0669743246320513e-03  2.9766749820338118e-03  5.5849154918554285e-15  6.3499669193233