<?xml version="1.0"?>
<VTKFile type="UnstructuredGrid"  version="0.1"  >
<UnstructuredGrid>
<Piece  NumberOfPoints="2446" NumberOfCells="4585">
<Points>
<DataArray  type="Float64"  NumberOfComponents="3"  format="ascii">0 0.41 0  0 0 0  2.2 0 0  2.2 0.41 0  0.2404508497187474 0.2293892626146237 0  0.25 0.2 0  0.2404508497187474 0.1706107373853764 0  0.2154508497187474 0.1524471741852423 0  0.1845491502812526 0.1524471741852423 0  0.1595491502812526 0.1706107373853764 0  0.15 0.2 0  0.1595491502812526 0.2293892626146237 0  0.1845491502812527 0.2475528258147577 0  0.2154508497187474 0.2475528258147577 0  1.1 0 0  1.1 0.41 0  0 0.205 0  0.55 0 0  0.55 0.41 0  0.275 0 0  0.275 0.41 0  1.65 0.41 0  1.65 0 0  0.8250000000000001 0.41 0  0.8250000000000001 0 0  1.375 0 0  1.375 0.41 0  1.925 0 0  1.925 0.41 0  1.5125 0.205 0  1.7875 0.205 0  0.6875 0.205 0  0.9625000000000001 0.205 0  1.2375 0.205 0  2.2 0.205 0  0.4687002074688797 0.2068568464730291 0  1.99375 0.2152743902439024 0  2.0625 0 0  2.0625 0.41 0  2.2 0.3075 0  0.4125 0 0  0.4125 0.41 0  1.7875 0.41 0  1.375 0.1486128048780488 0  1.5125 0 0  1.7875 0 0  1.5125 0.41 0  0.8250000000000001 0.2613871951219511 0  0.9625000000000001 0.41 0  0.9625000000000001 0 0  0.6875 0.41 0  0.6875 0 0  0.1375 0 0  0.1375 0.41 0  1.2375 0 0  1.1 0.1486128048780487 0  1.2375 0.41 0  1.65 0.1486128048780487 0  1.126715909090909 0.2793064024390244 0  1.676715909090909 0.2793064024390244 0  0.8517159090909092 0.1306935975609756 0  1.348284090909091 0.2793064024390244 0  0.34375 0.3032389320646208 0  1.894702181800738 0.1282910975492754 0  2.092797818199262 0.1282910975492754 0  1.85625 0.3075 0  0.61875 0.3075 0  0.61875 0.1025 0  0.3648540804333487 0.1240075933101478 0  0 0.3075 0  0 0.1025 0  2.099172119769978 0.25625 0  0.48125 0.09238439620688085 0  0.5781001037344399 0.2059284232365146 0  0.48125 0.3196743479159776 0  0.7265881057911006 0.3055240343720796 0  1.99375 0.08395950269330846 0  1.459960956013612 0.3075 0  1.569025960719943 0.2986889805672169 0  0.75625 0.08213100772579164 0  1.03125 0.3278689922742084 0  0.923871252904788 0.3078247185783941 0  1.959375 0.3126371951219512 0  1.749222215368287 0.1025 0  1.275777784631713 0.1025 0  2.2 0.1025 0  1.225938124459196 0.3075 0  1.550777784631713 0.1025 0  1.000777784631713 0.1025 0  1.44375 0.07430640243902442 0  1.16875 0.07430640243902437 0  1.899250267340833 0.2229966846119207 0  0.1020898364287272 0.3140258291809757 0  1.766482954545455 0.2934032012195123 0  0.3405058858996321 0.2119987970531874 0  0.7710785630958338 0.1710968191298857 0  1.046078563095834 0.2389031808701144 0  0.2 0.3400647632937836 0  1.421109702350723 0.2261157654379721 0  0.2800464974185557 0.08982544815605742 0  0.098916018031319 0.09171660955420841 0  2.13125 0 0  2.118919042110979 0.3422084711244843 0  1.30625 0.41 0  0.89375 0 0  1.597888256393107 0.2173787389261347 0  0.20625 0 0  1.829299675393195 0.07400700849299596 0  1.71875 0.41 0  1.16875 0.41 0  2.038220665644273 0.332420740103091 0  0.34375 0 0  0.417496017710808 0.2696595573092803 0  0.2 0.07687845740457822 0  0.9295982307099278 0.1343158415898188 0  0.07390688010811153 0.1697064032433452 0  0.5238366813727013 0.2578302467013575 0  0.05452951551825875 0.25625 0  0.5229630068078351 0.1548816096928243 0  1.452769549894695 0.1548122580621249 0  1.369219062229598 0.07430640243902442 0  1.30625 0 0  0.8504409521244898 0.3356935975609756 0  0.8821881244591965 0.205 0  1.720943423819132 0.1714577452753128 0  1.157188124459196 0.205 0  1.094219062229598 0.07430640243902437 0  1.03125 0 0  1.304056576180868 0.1714577452753128 0  1.67579304192913 0.07430640243902437 0  0.2751941921308361 0.3346083473122598 0  1.209670467133757 0.1362100266964769 0  1.025335513626278 0.1700681449722324 0  0.7562500000000001 0.41 0  1.58125 0 0  0.7567170593862014 0.2409196493502535 0  0.6926714215682891 0.1272249611432207 0  0.4139715849905988 0.3397932387114203 0  0.9840787304190477 0.2717749043358119 0  0.06875000000000001 0.41 0  0 0.35875 0  0.9281250000000001 0.06276726142697993 0  0.5507396469029935 0.3219409231578227 0  0.5504468037989405 0.09136885600634273 0  1.58125 0.41 0  1.631724228912893 0.3381867502687533 0  1.825608881788174 0.14499488549201 0  1.85625 0 0  1.44375 0 0  1.44375 0.41 0  1.85625 0.41 0  2.13125 0.41 0  0.7562500000000001 0 0  0.89375 0.41 0  0.4812500000000001 0 0  0.34375 0.41 0  0.4812500000000001 0.41 0  0.20625 0.41 0  0.06875000000000001 0 0  1.16875 0 0  0.61875 0 0  0.61875 0.41 0  1.03125 0.41 0  1.71875 0 0  1.99375 0 0  1.99375 0.41 0  1.340625 0.3489494290853124 0  1.134375 0.3489494290853123 0  1.700180620188976 0.3438659752031281 0  2.135782184673599 0.07126652247502523 0  1.668441847249787 0.2129203728327609 0  1.295782514339747 0.2378437748815763 0  0.8233075729931248 0.06842334294821524 0  1.409375 0.3520314716057996 0  0.403505597322782 0.182067236678212 0  0.378125 0.05794951541303489 0  0.3043468223249023 0.1518321115979534 0  2.129248544730567 0.1906135162504124 0  2.060771381434487 0.1989445750470348 0  2.013252586573865 0.1496169464686054 0  1.942766402200229 0.1734448904596831 0  1.895522487186454 0.06076163953489683 0  2.069553871656643 0.06605731020975725 0  1.274680914880868 0.3520219391081363 0  1.614713220494657 0.09473434380863296 0  0.7899021319497519 0.3149123934144827 0  0.69518737419149 0.0634051089053758 0  0.2971740475496061 0.2592172353407536 0  1.72990325744076 0.2380068107952482 0  1.356580098625191 0.2120393231351682 0  2.034370752044885 0.2668681600792073 0  1.51768709249349 0.3426260931494756 0  1.561883724969884 0.1650446847858835 0  1.197344062229598 0.2523725417393646 0  1.804085235518364 0.3468178408964637 0  1.817887819205233 0.2589243285818559 0  1.905897727272727 0.3485060975609756 0  0.6719798073392919 0.2688965171178177 0  0 0.05125 0  0.653125 0.35875 0  0.6396896119294488 0.1627615407790282 0  0.4274150154087412 0.1242548552168279 0  1.192836486056382 0.3562350748565544 0  0.8279124365364005 0.183856489168822 0  1.097485222388854 0.2083571153401724 0  1.28257088594801 0.2944411014911587 0  1.474860187679412 0.2504218616229368 0  1.406767003493824 0.2829282258560709 0  0.446875 0.04619219810344041 0  0.515625 0.04585361801037557 0  0.592043440706648 0.05125 0  1.845656689180403 0.1998310418452388 0  2.144958525570388 0.2909790873294231 0  0.6171090763650112 0.2492366900333857 0  2.2 0.15375 0  0.5145586920831158 0.3648371739579888 0  1.57794966442982 0.3540357145964566 0  0.721875 0.3633107922168974 0  0.0496154796471391 0.333125 0  0.5843750000000001 0.3662560860076676 0  0.5810878747760798 0.1474002776121195 0  1.508991196088596 0.1421783375065625 0  0.8840670607017558 0.2640994375393898 0  0.09776612425612034 0.2204896805326566 0  1.50436820029908 0.06143401634903343 0  1.223857000523521 0.0823554862453532 0  1.153316824384777 0.1289850171317837 0  2.148922302309752 0.1258841779285271 0  0.309375 0.04312325590431198 0  1.621993280276081 0.2841214267927899 0  1.550118654119087 0.2461998729100966 0  1.327182649291491 0.1216967252533594 0  1.051977450479407 0.1221382572915816 0  1.753125 0.04556020050186112 0  1.271875 0.04556020050186116 0  0.9816084133102366 0.05126138213476004 0  1.039051841454368 0.0572224914831029 0  0.9719230514536006 0.3480477870845102 0  1.94956388244759 0.1180512551534177 0  1.949997712993411 0.04965831614304109 0  1.771961817615021 0.1530278789497521 0  1.909246823951428 0.2812757146784527 0  0.2459536687882397 0.04668633953831142 0  1.948575539857022 0.2445328248721197 0  1.697271520964565 0.1233917627620729 0  0.7964897648514618 0.1211426571931604 0  1.065625 0.3689344961371042 0  1.085849084308977 0.3170853572226867 0  0.4702981435440001 0.260434880697798 0  1.577403511714593 0.05463601888079143 0  0.05622663515370135 0.05493816910862376 0  0.3267207591099919 0.3566194660323104 0  0.9003051618565143 0.3564049499960621 0  1.751571320346033 0.3651102912045228 0  0.1583785085108421 0.2994699345738728 0  0.1455283439499995 0.3542795598723423 0  2.2 0.35875 0  0.2347662494194072 0.298325008655211 0  0.1527284455616188 0.1065771775690181 0  0.1382139529076665 0.05427454456341477 0  0.8749341636311069 0.05110114999892954 0  0.643661668713109 0.05693499781019222 0  1.466879772203159 0.3611261772912453 0  1.990280163552011 0.3564754268533217 0  1.17471064520912 0.2990917256188288 0  0.5202693090594349 0.206382495511728 0  0 0.25625 0  2.2 0.25625 0  2.2 0.05125 0  0 0.15375 0  1.853978576207987 0.35875 0  0.9787513713939683 0.1487523696999336 0  0.240625 0.3722153812029779 0  1.515638456102889 0.2882700110184686 0  0.09048297387599738 0.3637717362208066 0  2.150453692751374 0.2387066338105111 0  1.323782677156475 0.04897634338873398 0  0.8074131292871642 0.3624701995505916 0  1.409375 0.03715320121951221 0  1.406484531114799 0.1087852750766809 0  1.134375 0.03715320121951218 0  1.627401732573545 0.04552157221025036 0  0.1170173172005315 0.1427610859166811 0  2.045405893604797 0.1105340662939892 0  1.255408269734577 0.1577307500159216 0  2.028125 0.03707597992059326 0  0.4743610090857199 0.1421513964721819 0  0.9354010469015898 0.250631300585664 0  0.04420832937638274 0.128125 0  0.8922386349349938 0.0992956419364831 0  0.1197849154434487 0.2663398672460083 0  1.248258025468107 0.2565907092181813 0  0.3746885856929528 0.370723531618974 0  1.203125 0.0366132337404304 0  0.5724622277005015 0.2751253816079333 0  0.3365425205162783 0.08395777655057959 0  2.072662025974815 0.2975086504196739 0  0.4581080832182547 0.3648371739579888 0  0.3874522734668214 0.2295447548840689 0  0.7827853612484443 0.04106550386289586 0  1.887722846421017 0.1760882698830035 0  1.472640588990488 0.1118278026240017 0  1.865937103925594 0.2604137786483804 0  1.463913572748262 0.2030442564990043 0  1.376426316059077 0.3186741374914345 0  0.6641993820150034 0.3141688596240831 0  0.2943117490824315 0.2130987422685822 0  0.3478153998082709 0.1666571081082676 0  0.3427990510599805 0.2575950027870776 0  0.7997118993855807 0.2216171933356366 0  
[...]
<PointData  Scalars="f_10-1"> 
<DataArray  type="Float64"  Name="f_10-1"  format="ascii">4.4013929945679788e-04  4.3631404222215151e-05  2.7582613281173137e-05  5.4270932280300160e-05  1.9704987154130918e-03  1.3638456480156340e-03  6.4492912699875020e-04  2.2289113393819996e-04  1.6818425381716229e-04  2.0630763556296421e-04  2.9624096487666898e-04  6.2216047348320606e-04  1.3267046589942686e-03  1.9348559831615720e-03  3.9984034385947068e-04  3.2697192770497763e-03  1.8036521271335912e-04  7.6262250418157262e-05  3.9273119343418237e-03  5.6909851140483384e-05  3.8459979913840936e-03  1.4988778797853962e-03  4.4481833006028833e-04  3.6242974300854341e-03  2.1185879343263648e-04  5.3416977940404209e-04  2.6749086346119183e-03  1.6968024050652549e-04  4.1174003269808985e-04  1.5671608561226927e-03  9.0441969653166226e-04  1.8166269021216114e-03  1.8148443649625007e-03  1.7776757400458818e-03  9.0183930824769531e-05  1.8196161375108818e-03  3.6956542085433964e-04  7.3207933888579565e-05  1.5555307996932544e-04  9.0788979499346065e-05  6.0561995996590926e-05  4.0120032804745447e-03  8.6892703846108417e-04  1.2014016837602023e-03  5.2897007235740124e-04  3.0647735629280032e-04  2.1467072088904374e-03  2.6548956007958441e-03  3.4541541203935576e-03  3.0519941618921447e-04  3.7871275174889119e-03  1.2904840968587397e-04  4.8408926777713209e-05  2.1897996069412933e-03  4.8405672156665779e-04  1.1601674233187864e-03  3.0311922606090138e-03  9.6823067162821316e-04  2.6336836853421810e-03  1.5216392797319409e-03  8.4269286820692099e-04  2.4017833046334667e-03  3.8014133917815989e-03  4.2276414739460461e-04  1.4055874467898766e-04  8.2679239961726638e-04  3.4611751503625353e-03  3.6814102441419587e-04  1.8312515882842279e-04  3.0753881544168477e-04  7.7097501858652316e-05  1.9855279351977108e-04  1.6622883005459684e-04  1.8220375291551161e-03  3.7765289134299523e-03  3.2933324097717694e-03  1.9947905904455532e-04  2.3423787742934926e-03  1.9758259615123299e-03  3.6236811315083615e-04  3.1375146861284341e-03  3.0907777958394688e-03  4.8262223203500849e-04  5.9680547150171544e-04  8.3370622012424720e-04  5.8254735005963240e-05  2.7719806074532421e-03  8.1969318178488611e-04  6.8860755624774517e-04  7.0837851858527993e-04  6.1263971715374459e-04  6.1674610592030632e-04  4.3850935388720248e-03  1.1827019573258212e-03  1.9625015278667882e-03  1.2962950035672910e-03  2.2340001566790507e-03  4.9096159781846721e-03  1.8639329035329212e-03  1.0367702075929624e-04  7.5209173322711046e-05  4.2921199866766954e-05  1.4830795162263039e-04  2.8716063537974536e-03  2.5754973631088491e-04  1.4884710426767307e-03  5.3590707386073214e-05  3.9295838972847437e-04  1.1743772884939200e-03  3.1614731085871641e-03  2.7948677880617993e-04  5.9075690489215453e-05  3.3074868861232044e-03  9.0048945828692062e-05  9.3199088944416074e-04  1.3741488319879034e-04  2.9183377127157970e-03  2.7465760428792594e-04  7.9495119131333238e-04  1.2254975343499661e-03  7.0018969728058390e-04  5.1213329317784291e-04  3.3944292287302327e-03  1.8180486586348349e-03  9.4536052581812994e-04  1.7947878476247353e-03  5.6869237214145099e-04  3.5484432787843029e-04  1.4190497550678508e-03  5.8752638974063462e-04  4.2978861267539744e-03  1.0757860314463423e-03  1.3761713924040717e-03  3.7085944371726487e-03  4.9765201550434424e-04  2.4018148109121486e-03  6.6977180355618112e-04  3.9700864248856434e-03  2.6648447011375824e-03  8.1149417854635051e-04  3.7267599103945725e-04  3.9927239590278820e-04  3.6894940045768946e-03  2.2616510609298511e-04  1.8286928365623457e-03  1.7718984201480141e-03  6.0567883017566303e-04  2.3416497366263598e-04  5.3819470449265625e-04  2.4333387393989771e-03  6.1949136850161649e-04  8.7693028115855688e-05  1.6736083215348555e-04  3.5418894283758026e-03  6.4455806501224845e-05  3.9940051084965261e-03  3.9806701319748932e-03  3.3318189513966688e-03  4.4659852497822010e-05  4.4578352499774769e-04  9.8189923001756587e-05  3.8606621652825029e-03  3.3670222430896369e-03  3.7840299827477444e-04  1.1304341191905551e-04  2.6290186612866099e-04  2.7813475611178006e-03  3.1277065921968966e-03  1.4556485353382153e-03  7.2109033324466881e-05  1.2829886277237980e-03  2.0914042151317681e-03  3.4486499333512413e-04  2.6064544354239823e-03  1.0974321006629534e-03  7.5122649328432254e-05  3.4609297404960155e-04  1.4083513130166931e-04  2.3333300438501772e-04  2.5892918416927789e-04  4.2192961315586970e-04  2.7809007651030161e-04  1.1084912586231522e-04  2.9220151715255165e-03  7.3137248821289285e-04  3.3069421139213318e-03  2.2773416753204826e-04  2.8025719698430663e-03  1.2011538054156595e-03  1.7956705573790241e-03  3.1189972871685561e-04  2.2418693522336993e-03  1.2025193501579456e-03  2.3069372305128855e-03  9.8666134208646766e-04  9.4208219621350986e-04  6.0039765250014497e-04  2.9058787534526056e-03  5.1972112727629053e-05  3.7589452045945445e-03  1.0743462474876045e-03  2.5750385993984645e-04  3.0727217575335086e-03  1.5047587221082982e-03  1.8433755259516698e-03  2.6067314061029964e-03  1.9756196222852195e-03  2.3298127530637976e-03  7.2745023509022876e-05  8.8993837094297409e-05  1.2686500612837115e-04  7.2017853030760027e-04  1.3855754874535399e-04  2.6476113479882652e-03  7.5822129680611728e-05  3.9289908589208288e-03  1.9945388061571151e-03  3.6918061205198078e-03  6.0225725437881427e-04  3.8592075990962209e-03  7.7858002182439447e-04  1.0945781512725365e-03  2.6431943274640500e-03  3.0222204262409880e-04  6.5056701110729575e-04  6.8530870116098022e-04  9.9151569160090404e-04  9.2539294807151377e-05  6.7440998820804716e-05  1.7409576430035387e-03  1.7829805654475317e-03  9.8401308209731782e-04  8.8190688562558329e-04  4.1610313536473268e-04  5.5523313367739308e-04  3.9066684655389525e-04  4.5434696948326792e-04  3.3217148798820734e-03  3.0992892705489271e-04  1.9843019822278542e-04  7.4994383960068410e-04  6.4296627257563732e-04  6.8804062300052894e-05  5.0506828606935452e-04  7.6376812927820572e-04  7.0434874308303687e-04  3.2855154984605664e-03  2.9993560353798435e-03  3.0548238026465585e-03  5.9938173760715229e-04  5.3931866037208258e-05  4.1087922419261085e-03  3.4484265575695297e-03  1.1686200236114672e-03  5.2091693876699478e-03  4.2436570648072694e-03  7.3304418021237025e-05  3.6150904524424321e-03  1.0188646775820001e-04  6.2195921217082892e-05  3.1274779870118862e-04  1.6904133224222536e-04  2.4274094540557207e-03  3.5267745019595167e-04  2.7673795915006986e-03  1.8209778957285463e-03  2.5940810974255817e-04  9.6133434205404416e-05  3.9894705884527528e-05  1.1933305511111725e-04  7.5927899445630523e-04  1.1131606177285380e-03  4.0405085171799507e-03  2.1033210346435662e-03  1.4947588030195433e-03  1.3262648621156561e-04  5.8721335612055292e-04  3.5841805725538938e-03  5.8146812957962537e-04  8.9898518737539432e-04  4.5556519904326739e-04  5.3896436261415687e-04  1.2123316578135191e-04  1.7364611233427037e-04  1.2862412651206960e-03  1.1573343538449052e-04  5.1844137522448789e-04  2.4360167256152745e-03  9.6860601722053590e-05  5.8726856126415413e-04  3.2597764482641318e-03  2.3123106006686968e-03  4.0405871604964772e-03  4.9844318266974077e-04  3.1339174021353259e-03  9.5281130475269326e-05  2.3728870419687293e-04  3.9789953863535914e-03  2.4732580444189970e-03  2.2115744226847871e-04  5.5155590252872603e-04  9.0910493209909278e-04  7.7454313958700335e-04  1.6166222489338556e-03  2.5940743308236784e-03  3.4632530546101453e-03  1.8560710328693686e-03  5.4854755111675816e-04  3.0880079971925410e-03  2.0804041912851649e-03  1.3511680444183158e-03  1.0785211664709931e-03  6.8804012672435842e-05  1.2226371236966390e-03  6.9521526176925211e-04  2.1303314846897810e-03  2.7396052300604364e-03  2.3827645095059261e-03  1.5522321982706685e-03  2.1732380337819237e-04  2.0410856535567432e-04  9.9272660784545689e-04  1.8916484513682931e-03  2.4890041895391647e-03  1.0007513404537412e-03  1.8569396120571014e-04  4.0763922328451404e-04  1.0790455790502435e-04  1.1763314655958507e-04  1.8684460803404453e-04  5.0285983535893439e-05  1.8982295941614850e-04  1.6626665033325370e-03  5.6207124281235392e-04  3.6911522447975276e-04  5.1126729785156790e-05  2.0880706391927227e-03  1.5246170824744355e-03  5.3559660291157044e-04  1.2379965313033621e-03  1.9908597185096404e-03  3.5841210284117981e-03  4.1230692010205578e-04  4.6053576187185953e-04  3.4100567266142244e-03  3.3528153110670340e-03  4.4145984812160801e-05  8.6130836329193755e-05  5.1201589043781484e-04  3.5834810132639842e-04  3.6523013303357038e-03  1.4850228083684879e-03  1.2178448875944043e-03  1.5256024257819072e-03  3.6001706959960995e-04  3.8654976582231645e-04  5.1512186908135604e-04  4.3586199521253446e-04  2.0830865233060032e-03  1.3020450865949286e-04  7.3355458583506034e-04  4.1468652795292394e-04  1.3166537203710060e-03  1.5660418184911475e-03  5.5946270385638620e-04  1.0179203163952144e-04  2.8672520354544829e-03  2.0133597055254767e-04  3.4969838050459283e-03  1.5002512186866137e-03  3.0334710368651180e-03  1.6837601625959212e-04  5.8922280015055977e-04  6.0271858290689734e-05  1.4688012811243771e-03  9.5275244369639664e-04  1.7400135338723546e-03  2.8467821576823632e-03  3.7751073428590617e-03  3.7352484840432031e-03  1.7688999519380290e-03  7.0152405603649058e-04  2.2688690294194775e-03  2.1739287948234921e-03  1.3748754979152368e-03  1.6030995782296639e-04  1.0110102676028688e-04  2.6631393589252395e-03  1.5476466566257486e-04  3.0231890498357162e-03  5.0793603112033099e-04  2.8799880780280108e-04  2.0146532372073344e-04  2.7804762615569464e-04  8.2926943410007901e-04  5.9101049598731371e-04  4.8415976798616550e-04  7.5390902696554696e-04  4.3880416311001507e-05  3.2370705045785507e-03  3.7399676952447752e-03  4.3520059527604429e-04  2.3619047125483068e-04  1.1813427934080003e-03  1.1522840212883363e-03  3.0606918786247627e-03  1.6964477025998243e-03  9.3216724536402090e-05  4.2125397642836897e-03  4.7085184530146586e-04  4.1644062455818150e-04  3.4490000036373606e-03  3.6459236441733619e-03  1.3578207902930402e-03  1.3134935331754883e-04  2.4495274912432132e-03  5.0643188100642038e-04  1.4937035350761073e-04  2.1905291061459255e-03  4.0567952495997595e-03  3.7559212153672555e-03  1.8988325026800426e-03  3.9443518423821298e-03  1.2916399364712101e-03  1.1917996819601807e-03  3.6326154229387715e-04  1.1987644556938212e-03  1.6074242774450753e-04  3.4126668152224785e-03  2.3403789230610423e-03  3.5421041876732865e-03  2.5819721818656955e-04  5.6248822371185849e-04  1.0100688664034744e-03  1.7328876984040310e-03  7.5935756996421547e-04  1.0919825413946208e-03  9.1739360065174716e-04  5.6853128348217615e-04  8.1745360898558212e-04  9.5845587737345122e-04  1.2821066403488565e-03  3.2230140679455501e-04  1.0437891090692055e-04  4.0410173129524990e-03  8.0153727904061305e-04  9.6727410901600007e-04  7.2831294299286433e-05  4.5723014386654659e-03  1.8899814910803385e-03  1.6199576290418514e-03  3.2829021286744716e-03  1.3187747914589809e-04  2.5592268042303121e-03  6.2461586885841666e-05  2.4454168776818969e-03  1.7180742048669945e-03  1.2556025088319082e-03  2.1533976065187328e-03  6.5592862987779810e-04  2.6949432447561858e-04  3.5258347919608123e-03  2.5149845033095163e-04  3.1294337516652685e-04  7.4303286065595224e-04  8.1218684084708923e-04  1.8365341738245982e-04  1.6745214644393484e-04  1.1251116573668778e-04  1.1525553442301071e-03  6.5877793075216559e-04  1.8268439028132947e-03  9.9883007141423220e-04  1.5257218401404423e-03  1.4031484265211733e-04  7.0199693536289747e-04  3.1873564857408721e-03  3.2260755482409241e-04  2.9297392038743096e-04  2.3404232864037948e-04  2.4874336485207965e-04  6.7386392802228835e-05  1.0115159222226223e-04  3.6290918591191419e-04  4.4382532387029193e-04  1.3203756203444052e-04  2.9253048775210498e-03  1.9174090556913525e-03  1.9652102788023443e-03  4.9383833236857789e-04  7.5146893981156129e-04  2.5247072973665729e-03  7.0064881239245474e-05  4.0137751668079475e-03  6.1065477561519032e-04  9.5332335647068387e-04  2.9692596436493518e-03  1.1135278544584610e-03  3.1645996453814949e-03  3.2171013662485601e-03  2.8875523173637098e-03  2.7772981066555794e-03  2.7181465622799572e-03  2.9092983479914111e-03  1.4922188953289865e-03  1.2624429380713907e-04  3.0997536935384071e-03  3.6660247898398900e-03  3.8732723179560093e-03  1.4833987633491739e-03  3.8674410108199727e-04  6.6730163200010126e-05  5.9535304265782747e-05  3.7900112505141865e-03  3.4245501613787616e-03  3.6876450022756218e-03  3.7292848410199323e-03  6.0432441120580318e-04  5.1375643181264996e-04  2.2708320717796278e-03  1.6080559713893975e-04  4.9982100577111721e-04  3.7765243802755408e-04  2.5097806616916772e-03  1.3283125857352647e-03  3.3041284017579811e-04  2.6989115028350040e-04  4.8958137209695004e-04  2.9561015034745078e-03  3.2358419716437426e-03  4.7213532216874024e-04  7.1748190385436506e-05  5.2566166447018739e-04  3.7876146681866410e-04  3.2550998325690987e-05  5.5757324601693108e-05  4.2374635437205722e-04  5.4003066374919324e-04  2.2955257188258379e-03  1.0206369040702593e-03  3.3192990396913040e-03  3.4616685360104691e-04  3.7480617804579930e-03  2.5581999268689953e-03  1.4790700391288582e-04  6.5498140824452064e-05  2.8299106093030465e-04  4.0134183321821667e-03  6.1626198271448653e-05  4.0008552692923213e-03  4.6205643665031643e-05  3.6574478730137670e-03  5.5067773592479890e-05  1.4014194179386096e-03  1.1195330773212712e-04  1.8883444561445346e-04  5.8150353333682636e-05  3.8958669541548732e-03  3.9563244376314109e-03  8.5475006263757800e-05  6.8604107129751802e-05  3.8267455963054676e-03  3.3212976460974929e-04  4.6417829037290637e-04  4.7216139596366921e-04  1.3913679089896011e-04  4.9919736382960278e-04  9.1226650497076544e-05  3.2852421377211184e-04  1.2896971481771229e-03  2.1893428681377306e-04  3.5001942293619363e-04  9.8730843213624812e-04  1.2856611481455644e-03  1.1082406798501452e-04  2.1122302926177561e-03  2.3971106538991241e-03  3.0024890548780809e-03  2.1278962960921415e-03  2.2755677292192141e-03  2.1202609872525798e-04  2.3917323013322553e-03  2.4909673112111920e-03  2.5469826897727547e-03  1.3621902870469289e-03  6.9133031346653114e-04  1.1499220266972276e-03  9.7590866004817342e-05  2.3338142363080504e-03  4.9030482584115013e-04  1.4419057991458492e-03  1.7641294181594777e-03  5.8431270606270930e-04  2.2890995036287630e-03  3.2487643752818558e-03  2.7291736389554763e-03  3.4171825262716590e-03  2.1694569143180015e-04  3.7283839089998229e-03  5.1921627528130152e-04  3.8360136940251781e-03  9.0464658935252411e-05  1.2022195870932821e-04  6.3498095196267443e-04  3.7721610190851063e-03  1.4829073059045219e-03  1.4061473724104781e-03  2.9102265953619010e-03  5.1288457561438896e-04  4.4615730591064835e-04  2.2164028018130774e-03  2.0034946565806680e-04  7.3461348568936661e-05  3.1984765820248593e-03  3.0032576055858875e-03  2.2900807394083812e-03  2.9727613455985845e-04  8.8412679599026995e-04  1.8707738994102891e-03  8.8999593999176214e-04  1.4820104615378628e-03  8.1062491366987719e-04  2.3185276321574299e-04  1.1673467604198438e-04  1.5133806181789709e-04  1.3841537334185307e-03  9.7156954676398438e-04  6.2319332702021914e-04  3.2979077600981607e-03  7.2773966356124277e-04  6.2864913533955261e-04  1.4368908251330902e-04  5.1699443465247569e-04  2.5649787529480905e-03  1.9842701630363997e-03  2.1430954714502671e-03  1.6803790175443754e-04  5.4184695445547241e-05  6.9589428781702083e-04  1.8462841601171774e-03  9.3459938771640481e-04  1.3481550816112223e-03  7.5037806393000653e-05  7.9273141667627809e-04  8.2252778644502410e-04  1.5111684673593977e-04  2.0484465783662371e-03  6.1918809059552491e-04  3.3661584849454043e-03  5.0890174958471512e-04  1.4543877276557101e-03  8.8335707649777457e-04  5.3323611432314543e-04  8.9690642615769664e-04  5.6928196183779988e-04  2.8957789281701877e-03  7.4385266318148535e-04  1.2152197074953887e-03  1.1407646530394087e-04  2.0078956112150738e-03  2.5119293083961589e-03  2.1165525714925281e-03  1.1267428809420589e-03  6.9302004795965863e-04  1.0611143000112126e-03  9.0102896531984306e-04  1.8882797222086873e-04  5.6050355869349941e-04  3.3770636870201359e-04  4.5761964916684929e-05  4.7091816711746599e-05  1.0705325739302140e-03  3.3483717022477280e-04  2.7861941884103499e-03  3.2541219216453529e-03  3.8995226002190467e-03  2.1214377154608350e-03  5.7674321062744767e-05  4.0601627042803961e-03  3.5369814414187200e-03  2.6587767127225992e-04  2.8236670519556492e-03  2.7989524113773696e-03  4.1436717847045173e-03  6.6495859925206214e-04  7.3351517925745470e-04  3.5113371594487634e-03  2.1712366911647130e-04  3.4131930870531036e-03  6.2822485857133757e-05  9.1040706694866603e-05  3.2652385288449181e-03  3.2644545379052173e-04  2.1457176853257290e-03  8.7736918170935245e-04  7.4740884927695928e-04  9.4203676888217371e-05  2.6882168051647281e-03  1.9688298393986700e-04  1.4863702677455847e-03  1.7102735944541081e-03  1.2186462536268739e-03  1.5970480305808321e-03  1.5224198161242204e-03  5.4451838898099408e-05  2.4229866556068165e-03  2.5563382133295186e-04  4.9125545329233510e-04  4.1289322273680698e-03  6.0321206524917795e-03  6.6882302000523882e-04  2.9565782140197703e-03  1.8268409446174153e-03  1.8638045408584465e-03  2.1758805745275595e-03  1.7731277486463929e-03  5.6834183436592334e-04  7.5056024286325614e-04  2.1485095956899931e-04  2.6675822133861966e-04  3.2530924189318215e-03  1.7716176492738624e-03  1.8140187253714900e-03  2.3331299691288234e-03  2.1142669427297576e-03  3.5154835601272517e-03  4.5844327510671161e-04  6.4583067902398549e-04  2.8006553265940066e-03  2.7161962737112860e-03  3.1379077040788318e-03  3.5490279752684122e-03  6.6865387154024230e-05  5.4781162374590081e-03  2.5977240157036836e-03  2.3549354111136447e-03  3.5473145848731930e-03  2.9523922152872905e-03  3.7206165716644423e-03  4.9148506457766391e-04  2.6729623060410572e-03  3.0350387631611496e-03  1.9592053220054878e-04  6.9420097756147194e-04  2.7106954950498104e-04  3.7773246520377858e-04  2.2336876312286699e-03  1.2320612330098566e-04  1.1516173846744635e-03  1.7300659652240251e-03  1.0217930786746480e-04  8.6622259461568215e-04  5.6919985906490000e-04  1.0298998863278433e-04  2.5239735664676658e-03  1.0036896271821741e-03  1.3983556282721435e-04  1.5778612089390942e-04  1.0837862728914078e-04  3.9398579360259102e-03  7.1335236049341355e-04  3.9859905598906665e-04  1.1820465241917006e-03  5.3393271397489546e-04  3.8668686101904747e-04  3.4984785346874368e-04  8.5052583034993180e-04  1.6772546828652919e-03  1.0338251862120602e-03  7.8254176364944597e-04  8.6447491201506195e-05  1.6004065534215789e-03  2.9820907013729174e-03  2.9922474586685315e-03  3.1668789640492646e-03  2.9963043041545349e-03  3.9700881152642999e-03  3.9199721895124082e-03  6.5885006612981755e-04  5.8875098498725548e-05  7.2642450892289001e-05  4.7389105943177343e-05  2.8283919239055605e-03  6.0995223919141727e-05  5.4028434850159881e-04  4.0054356146301600e-03  1.0731361462151413e-03  8.3104616890628650e-05  1.5352621597649417e-04  2.1410309225061250e-04  2.0071726843719118e-03  1.8660503151106153e-03  2.7054156459104610e-03  3.4509324459166738e-04  4.2042617539755120e-04  2.7599722197887990e-03  3.3339686477795483e-04  2.4321822989493728e-03  9.4665789403262555e-05  7.4424030710469572e-05  3.7420365500596367e-04  2.0648026535338438e-04  3.4953596036398590e-03  1.7074264687110150e-03  1.8796023211908480e-03  1.6463544194783943e-03  2.6672923056905119e-03  6.3278643053611423e-04  1.1139434938584878e-03  7.9931214596309984e-04  3.9121005148592524e-03  1.0592658116638667e-03  2.3813952453374636e-04  1.8020092583334089e-04  3.9807359858814711e-03  5.4451872239574838e-04  1.3215976481024969e-03  1.5135933961776301e-03  6.7830423685406697e-04  3.1293560634786609e-03  2.3688565167218410e-03  1.1558063541820902e-03  7.5811103347057864e-05  5.1059252916800665e-04  6.0671147023821051e-05  2.7654731911407699e-03  1.7408150843119870e-03  3.3997391808685534e-03  1.2985099438719821e-03  8.6117640960686