<?xml version="1.0"?>
<VTKFile type="UnstructuredGrid"  version="0.1"  >
<UnstructuredGrid>
<Piece  NumberOfPoints="2446" NumberOfCells="4585">
<Points>
<DataArray  type="Float64"  NumberOfComponents="3"  format="ascii">0 0.41 0  0 0 0  2.2 0 0  2.2 0.41 0  0.2404508497187474 0.2293892626146237 0  0.25 0.2 0  0.2404508497187474 0.1706107373853764 0  0.2154508497187474 0.1524471741852423 0  0.1845491502812526 0.1524471741852423 0  0.1595491502812526 0.1706107373853764 0  0.15 0.2 0  0.1595491502812526 0.2293892626146237 0  0.1845491502812527 0.2475528258147577 0  0.2154508497187474 0.2475528258147577 0  1.1 0 0  1.1 0.41 0  0 0.205 0  0.55 0 0  0.55 0.41 0  0.275 0 0  0.275 0.41 0  1.65 0.41 0  1.65 0 0  0.8250000000000001 0.41 0  0.8250000000000001 0 0  1.375 0 0  1.375 0.41 0  1.925 0 0  1.925 0.41 0  1.5125 0.205 0  1.7875 0.205 0  0.6875 0.205 0  0.9625000000000001 0.205 0  1.2375 0.205 0  2.2 0.205 0  0.4687002074688797 0.2068568464730291 0  1.99375 0.2152743902439024 0  2.0625 0 0  2.0625 0.41 0  2.2 0.3075 0  0.4125 0 0  0.4125 0.41 0  1.7875 0.41 0  1.375 0.1486128048780488 0  1.5125 0 0  1.7875 0 0  1.5125 0.41 0  0.8250000000000001 0.2613871951219511 0  0.9625000000000001 0.41 0  0.9625000000000001 0 0  0.6875 0.41 0  0.6875 0 0  0.1375 0 0  0.1375 0.41 0  1.2375 0 0  1.1 0.1486128048780487 0  1.2375 0.41 0  1.65 0.1486128048780487 0  1.126715909090909 0.2793064024390244 0  1.676715909090909 0.2793064024390244 0  0.8517159090909092 0.1306935975609756 0  1.348284090909091 0.2793064024390244 0  0.34375 0.3032389320646208 0  1.894702181800738 0.1282910975492754 0  2.092797818199262 0.1282910975492754 0  1.85625 0.3075 0  0.61875 0.3075 0  0.61875 0.1025 0  0.3648540804333487 0.1240075933101478 0  0 0.3075 0  0 0.1025 0  2.099172119769978 0.25625 0  0.48125 0.09238439620688085 0  0.5781001037344399 0.2059284232365146 0  0.48125 0.3196743479159776 0  0.7265881057911006 0.3055240343720796 0  1.99375 0.08395950269330846 0  1.459960956013612 0.3075 0  1.569025960719943 0.2986889805672169 0  0.75625 0.08213100772579164 0  1.03125 0.3278689922742084 0  0.923871252904788 0.3078247185783941 0  1.959375 0.3126371951219512 0  1.749222215368287 0.1025 0  1.275777784631713 0.1025 0  2.2 0.1025 0  1.225938124459196 0.3075 0  1.550777784631713 0.1025 0  1.000777784631713 0.1025 0  1.44375 0.07430640243902442 0  1.16875 0.07430640243902437 0  1.899250267340833 0.2229966846119207 0  0.1020898364287272 0.3140258291809757 0  1.766482954545455 0.2934032012195123 0  0.3405058858996321 0.2119987970531874 0  0.7710785630958338 0.1710968191298857 0  1.046078563095834 0.2389031808701144 0  0.2 0.3400647632937836 0  1.421109702350723 0.2261157654379721 0  0.2800464974185557 0.08982544815605742 0  0.098916018031319 0.09171660955420841 0  2.13125 0 0  2.118919042110979 0.3422084711244843 0  1.30625 0.41 0  0.89375 0 0  1.597888256393107 0.2173787389261347 0  0.20625 0 0  1.829299675393195 0.07400700849299596 0  1.71875 0.41 0  1.16875 0.41 0  2.038220665644273 0.332420740103091 0  0.34375 0 0  0.417496017710808 0.2696595573092803 0  0.2 0.07687845740457822 0  0.9295982307099278 0.1343158415898188 0  0.07390688010811153 0.1697064032433452 0  0.5238366813727013 0.2578302467013575 0  0.05452951551825875 0.25625 0  0.5229630068078351 0.1548816096928243 0  1.452769549894695 0.1548122580621249 0  1.369219062229598 0.07430640243902442 0  1.30625 0 0  0.8504409521244898 0.3356935975609756 0  0.8821881244591965 0.205 0  1.720943423819132 0.1714577452753128 0  1.157188124459196 0.205 0  1.094219062229598 0.07430640243902437 0  1.03125 0 0  1.304056576180868 0.1714577452753128 0  1.67579304192913 0.07430640243902437 0  0.2751941921308361 0.3346083473122598 0  1.209670467133757 0.1362100266964769 0  1.025335513626278 0.1700681449722324 0  0.7562500000000001 0.41 0  1.58125 0 0  0.7567170593862014 0.2409196493502535 0  0.6926714215682891 0.1272249611432207 0  0.4139715849905988 0.3397932387114203 0  0.9840787304190477 0.2717749043358119 0  0.06875000000000001 0.41 0  0 0.35875 0  0.9281250000000001 0.06276726142697993 0  0.5507396469029935 0.3219409231578227 0  0.5504468037989405 0.09136885600634273 0  1.58125 0.41 0  1.631724228912893 0.3381867502687533 0  1.825608881788174 0.14499488549201 0  1.85625 0 0  1.44375 0 0  1.44375 0.41 0  1.85625 0.41 0  2.13125 0.41 0  0.7562500000000001 0 0  0.89375 0.41 0  0.4812500000000001 0 0  0.34375 0.41 0  0.4812500000000001 0.41 0  0.20625 0.41 0  0.06875000000000001 0 0  1.16875 0 0  0.61875 0 0  0.61875 0.41 0  1.03125 0.41 0  1.71875 0 0  1.99375 0 0  1.99375 0.41 0  1.340625 0.3489494290853124 0  1.134375 0.3489494290853123 0  1.700180620188976 0.3438659752031281 0  2.135782184673599 0.07126652247502523 0  1.668441847249787 0.2129203728327609 0  1.295782514339747 0.2378437748815763 0  0.8233075729931248 0.06842334294821524 0  1.409375 0.3520314716057996 0  0.403505597322782 0.182067236678212 0  0.378125 0.05794951541303489 0  0.3043468223249023 0.1518321115979534 0  2.129248544730567 0.1906135162504124 0  2.060771381434487 0.1989445750470348 0  2.013252586573865 0.1496169464686054 0  1.942766402200229 0.1734448904596831 0  1.895522487186454 0.06076163953489683 0  2.069553871656643 0.06605731020975725 0  1.274680914880868 0.3520219391081363 0  1.614713220494657 0.09473434380863296 0  0.7899021319497519 0.3149123934144827 0  0.69518737419149 0.0634051089053758 0  0.2971740475496061 0.2592172353407536 0  1.72990325744076 0.2380068107952482 0  1.356580098625191 0.2120393231351682 0  2.034370752044885 0.2668681600792073 0  1.51768709249349 0.3426260931494756 0  1.561883724969884 0.1650446847858835 0  1.197344062229598 0.2523725417393646 0  1.804085235518364 0.3468178408964637 0  1.817887819205233 0.2589243285818559 0  1.905897727272727 0.3485060975609756 0  0.6719798073392919 0.2688965171178177 0  0 0.05125 0  0.653125 0.35875 0  0.6396896119294488 0.1627615407790282 0  0.4274150154087412 0.1242548552168279 0  1.192836486056382 0.3562350748565544 0  0.8279124365364005 0.183856489168822 0  1.097485222388854 0.2083571153401724 0  1.28257088594801 0.2944411014911587 0  1.474860187679412 0.2504218616229368 0  1.406767003493824 0.2829282258560709 0  0.446875 0.04619219810344041 0  0.515625 0.04585361801037557 0  0.592043440706648 0.05125 0  1.845656689180403 0.1998310418452388 0  2.144958525570388 0.2909790873294231 0  0.6171090763650112 0.2492366900333857 0  2.2 0.15375 0  0.5145586920831158 0.3648371739579888 0  1.57794966442982 0.3540357145964566 0  0.721875 0.3633107922168974 0  0.0496154796471391 0.333125 0  0.5843750000000001 0.3662560860076676 0  0.5810878747760798 0.1474002776121195 0  1.508991196088596 0.1421783375065625 0  0.8840670607017558 0.2640994375393898 0  0.09776612425612034 0.2204896805326566 0  1.50436820029908 0.06143401634903343 0  1.223857000523521 0.0823554862453532 0  1.153316824384777 0.1289850171317837 0  2.148922302309752 0.1258841779285271 0  0.309375 0.04312325590431198 0  1.621993280276081 0.2841214267927899 0  1.550118654119087 0.2461998729100966 0  1.327182649291491 0.1216967252533594 0  1.051977450479407 0.1221382572915816 0  1.753125 0.04556020050186112 0  1.271875 0.04556020050186116 0  0.9816084133102366 0.05126138213476004 0  1.039051841454368 0.0572224914831029 0  0.9719230514536006 0.3480477870845102 0  1.94956388244759 0.1180512551534177 0  1.949997712993411 0.04965831614304109 0  1.771961817615021 0.1530278789497521 0  1.909246823951428 0.2812757146784527 0  0.2459536687882397 0.04668633953831142 0  1.948575539857022 0.2445328248721197 0  1.697271520964565 0.1233917627620729 0  0.7964897648514618 0.1211426571931604 0  1.065625 0.3689344961371042 0  1.085849084308977 0.3170853572226867 0  0.4702981435440001 0.260434880697798 0  1.577403511714593 0.05463601888079143 0  0.05622663515370135 0.05493816910862376 0  0.3267207591099919 0.3566194660323104 0  0.9003051618565143 0.3564049499960621 0  1.751571320346033 0.3651102912045228 0  0.1583785085108421 0.2994699345738728 0  0.1455283439499995 0.3542795598723423 0  2.2 0.35875 0  0.2347662494194072 0.298325008655211 0  0.1527284455616188 0.1065771775690181 0  0.1382139529076665 0.05427454456341477 0  0.8749341636311069 0.05110114999892954 0  0.643661668713109 0.05693499781019222 0  1.466879772203159 0.3611261772912453 0  1.990280163552011 0.3564754268533217 0  1.17471064520912 0.2990917256188288 0  0.5202693090594349 0.206382495511728 0  0 0.25625 0  2.2 0.25625 0  2.2 0.05125 0  0 0.15375 0  1.853978576207987 0.35875 0  0.9787513713939683 0.1487523696999336 0  0.240625 0.3722153812029779 0  1.515638456102889 0.2882700110184686 0  0.09048297387599738 0.3637717362208066 0  2.150453692751374 0.2387066338105111 0  1.323782677156475 0.04897634338873398 0  0.8074131292871642 0.3624701995505916 0  1.409375 0.03715320121951221 0  1.406484531114799 0.1087852750766809 0  1.134375 0.03715320121951218 0  1.627401732573545 0.04552157221025036 0  0.1170173172005315 0.1427610859166811 0  2.045405893604797 0.1105340662939892 0  1.255408269734577 0.1577307500159216 0  2.028125 0.03707597992059326 0  0.4743610090857199 0.1421513964721819 0  0.9354010469015898 0.250631300585664 0  0.04420832937638274 0.128125 0  0.8922386349349938 0.0992956419364831 0  0.1197849154434487 0.2663398672460083 0  1.248258025468107 0.2565907092181813 0  0.3746885856929528 0.370723531618974 0  1.203125 0.0366132337404304 0  0.5724622277005015 0.2751253816079333 0  0.3365425205162783 0.08395777655057959 0  2.072662025974815 0.2975086504196739 0  0.4581080832182547 0.3648371739579888 0  0.3874522734668214 0.2295447548840689 0  0.7827853612484443 0.04106550386289586 0  1.887722846421017 0.1760882698830035 0  1.472640588990488 0.1118278026240017 0  1.865937103925594 0.2604137786483804 0  1.463913572748262 0.2030442564990043 0  1.376426316059077 0.3186741374914345 0  0.6641993820150034 0.3141688596240831 0  0.2943117490824315 0.2130987422685822 0  0.3478153998082709 0.1666571081082676 0  0.3427990510599805 0.2575950027870776 0  0.7997118993855807 0.2216171933356366 0  
[...]
<PointData  Scalars="f_10-1"> 
<DataArray  type="Float64"  Name="f_10-1"  format="ascii">8.8051380293523661e-04  3.1047428246569101e-04  1.2116936921250717e-03  2.7627142255713549e-03  2.3317150964358734e-03  1.7094012109364974e-03  9.7756149220719368e-04  5.5281199344712735e-04  5.0321449893969911e-04  5.4840577472511172e-04  6.4631021935787668e-04  9.8064477893402223e-04  1.6914867607541349e-03  2.3029701018135820e-03  6.6456856772082427e-04  3.7165711819942132e-03  5.3352682559149110e-04  3.4980107140128799e-04  4.3470500370917904e-03  3.3342277345608948e-04  4.2711842761682037e-03  3.1645415492967022e-03  9.9432765403367177e-04  4.0436765879561885e-03  4.7887133544845294e-04  8.4267477935751468e-04  3.4218461274307895e-03  1.1187009982367036e-03  2.9438492340272764e-03  2.0963885110810471e-03  2.0571906606286065e-03  2.1617412967650223e-03  2.1562413022761123e-03  2.1305512847388137e-03  1.9965180767462232e-03  2.1692423297142178e-03  2.0993723868949401e-03  1.1724494325031447e-03  2.8436294072276785e-03  2.5673664302141397e-03  3.3736565009913577e-04  4.4328591242748100e-03  3.0503091026288310e-03  1.5464813907079069e-03  9.2299909879335910e-04  1.0591060797666147e-03  3.2884965110580905e-03  3.0304158504808306e-03  3.8775566976527944e-03  5.6969815713065158e-04  4.2065378991742834e-03  3.9919772672560559e-04  3.1888524238403909e-04  2.6245090924493170e-03  7.5803560438147727e-04  1.4687310682694871e-03  3.5632636833649619e-03  1.5983074165832887e-03  3.0236999860579882e-03  2.6829154163494793e-03  1.1440236356442658e-03  2.8751012114074468e-03  4.1964186564888628e-03  1.4997603369229777e-03  1.5325648924915561e-03  2.7551344258890938e-03  3.8609167778637606e-03  6.6071024134760337e-04  4.9044579735523549e-04  7.2092414793477170e-04  3.7098132587013816e-04  2.3411865003288017e-03  4.5792015780065856e-04  2.1693677863528255e-03  4.1813233662651239e-03  3.6910170026319879e-03  1.3006864988820647e-03  3.0201273713542647e-03  2.8852041516560234e-03  6.4528427215100755e-04  3.5454575087437573e-03  3.4878678056267176e-03  2.7174043437137949e-03  1.3123843524452099e-03  1.1286976049347348e-03  1.4247999671959321e-03  3.2040137534812530e-03  1.2450147523525867e-03  9.7522855370634279e-04  1.0409570902487522e-03  8.8981830136038056e-04  2.1761575752870864e-03  4.7965533837016688e-03  2.7276571797709543e-03  2.3187018873486857e-03  1.6202236485166911e-03  2.5958050148482863e-03  5.3177792728066869e-03  2.3243300190823168e-03  4.0844899103681219e-04  3.6781543309844406e-04  1.1950331969259613e-03  2.7305816106113967e-03  3.4905309330387456e-03  5.2310242043836328e-04  2.1975833653224064e-03  3.2798735521059761e-04  1.2084185141204608e-03  3.1058262040546290e-03  3.6389350288296824e-03  2.7494285069083529e-03  3.3647497118503421e-04  3.6936326257272097e-03  3.9063144437009986e-04  1.2340223805964970e-03  4.7025155582097213e-04  3.2971941428339602e-03  6.5857037719093217e-04  1.1122851401022696e-03  1.6184855760721869e-03  1.0035391489094136e-03  7.9870908249820151e-04  3.8019442953575924e-03  2.1603140514757460e-03  1.7880046068774274e-03  2.1391381991156823e-03  8.4471193308103512e-04  6.1905147908502829e-04  1.7599290122031761e-03  1.1480144202607868e-03  4.7017933648474137e-03  1.3812120596867917e-03  1.6965815708824975e-03  4.1280105333768753e-03  9.6058459304091759e-04  2.7670329395768603e-03  9.7176218687588807e-04  4.3802464145658556e-03  3.0448252664972901e-03  1.2508125388211084e-03  8.0591918898173152e-04  6.7339076901313632e-04  4.0948739318158334e-03  5.1595417396943749e-04  3.2254628489635615e-03  3.0555318253617809e-03  1.5969195031326888e-03  1.0897471816958468e-03  8.8185762381423464e-04  3.3533226399367505e-03  2.9947890003522242e-03  2.7965136045659399e-03  4.3578217571839183e-04  3.9625028407630960e-03  3.3977182702412957e-04  4.4164492053349680e-03  4.4008704267148166e-03  3.7614968043485440e-03  3.1227382935028740e-04  7.1338819040805935e-04  3.7002122453066094e-04  4.2801622141982664e-03  3.7981770271509640e-03  1.0269174645061341e-03  1.1447475146697025e-03  2.8919788233353091e-03  3.3554729976743598e-03  3.5594047607771712e-03  3.0259301748686825e-03  1.2977979499587584e-03  2.1435916268169775e-03  2.4868705559049102e-03  6.2235271421449934e-04  3.3001682590377101e-03  1.4307590876450589e-03  3.6106396952487944e-04  6.6820252086293905e-04  1.9121691604259306e-03  1.9747314528871288e-03  1.6483156478113534e-03  1.8055144264714927e-03  1.1882692910363882e-03  1.2620348045148961e-03  3.4293380603873671e-03  1.2232066492928744e-03  3.7076848947502068e-03  5.0647466105209645e-04  3.1775368025003074e-03  2.3399730275211390e-03  2.1921333812462461e-03  2.4315015911444142e-03  3.1683239795693278e-03  1.7243077304575009e-03  2.6883214196254815e-03  2.9576575743545525e-03  2.4694473654462853e-03  2.8881765129737860e-03  3.2876388316184137e-03  3.2610981591455672e-04  4.1734203262901795e-03  1.3951927027733239e-03  5.6162427974986351e-04  3.5302287935682205e-03  1.8352633094460104e-03  2.1873675956206634e-03  3.0532314979173970e-03  2.5436638583695866e-03  2.8694076802702629e-03  3.5379289819161680e-04  3.6826497849983995e-04  4.0512800908785670e-04  2.0082607235456444e-03  2.5145380797498367e-03  3.0199184403993926e-03  1.6836226263766110e-03  4.3450699605666714e-03  3.1596848778098533e-03  4.1068368919959528e-03  1.0261521468110121e-03  4.2752920011059955e-03  1.0916669293430422e-03  1.5198587109117173e-03  3.0193863378649021e-03  6.6279111862487254e-04  1.0188805849998732e-03  9.6771860445021688e-04  1.2907154027230270e-03  1.5277259623143382e-03  3.5120977563101347e-04  2.7489874404846952e-03  2.4743314275912330e-03  1.2968998115420935e-03  1.1768103466234634e-03  1.0867020360069233e-03  8.3390641284036393e-04  6.6104230523044642e-04  7.2566902137216160e-04  3.7342497136801109e-03  1.4511293224268105e-03  1.1766467171763562e-03  1.6476352628927193e-03  2.5762685519354449e-03  3.5432407510955404e-04  2.3175509064152391e-03  1.4254058746786071e-03  1.0020515941705367e-03  3.7124475592906010e-03  3.4064246410836683e-03  3.4361322712364549e-03  1.0327653400103692e-03  3.2969599390169209e-04  4.5229537779114494e-03  3.8619170812665099e-03  3.0472014663438652e-03  5.6016848996476194e-03  4.6655632659123973e-03  2.7244034044894686e-03  3.9985231750917375e-03  4.1153790325353313e-04  3.4419769404187776e-04  5.8479073246892131e-04  4.4726863236085559e-04  3.2789464406406742e-03  2.8505773379312585e-03  3.1776069245115055e-03  2.1694933779732007e-03  6.4481098376950065e-04  2.3089210355730231e-03  1.2604837643017616e-03  4.4080696206086031e-04  2.9525429668575938e-03  1.4220538778422582e-03  4.4616424179776890e-03  2.8430494656349380e-03  1.9268214783709986e-03  2.2165355717429979e-03  8.7516251875045272e-04  3.9987337674904280e-03  8.9676351519760807e-04  1.2291877192501155e-03  7.2353145777697282e-04  1.0307122351900897e-03  4.4442115060605445e-04  1.4312213249007171e-03  1.6087454568820784e-03  1.1825032366728782e-03  8.2941106867058772e-04  2.8044166649395098e-03  4.0466387625196485e-04  8.7404928939765830e-04  3.6416906963566121e-03  2.7085841695755359e-03  4.4583581652602481e-03  7.6958956000948431e-04  3.5205080515448100e-03  3.9196895010707686e-04  2.5824974030096868e-03  4.3952109201291049e-03  2.8399282514853462e-03  4.9310010337868778e-04  1.8247452018558378e-03  1.2764660734336101e-03  2.4601015734745987e-03  2.0833109974288896e-03  3.1606143137150183e-03  3.8650547619653620e-03  2.2113217424963028e-03  8.7166324842910124e-04  3.4678079125959917e-03  2.4337104263575725e-03  2.6845417494075910e-03  2.4058014810115136e-03  1.2093967439153984e-03  1.5455563125522280e-03  9.9566769162581542e-04  2.4861230608555569e-03  3.1255444525393862e-03  2.7543573881486389e-03  1.9451292229054522e-03  5.4022744244643268e-04  2.8678981401506218e-03  1.5304416734646074e-03  2.2400640886903979e-03  2.8570126797146456e-03  2.7582421915147066e-03  5.4133567319012723e-04  2.4044817474320867e-03  2.6737520077569745e-03  2.8196019771869361e-03  2.8067610097046300e-03  3.2272450683380510e-04  4.6280987316382814e-04  3.1945168457587639e-03  1.3855444922060264e-03  2.6379260338029692e-03  3.2369900322747113e-04  2.5447641417125789e-03  1.8562433446601123e-03  9.0237418054207299e-04  1.9346757787063770e-03  3.2558937214356523e-03  4.0040171571158632e-03  1.0106106607853597e-03  1.0637337502034368e-03  3.8365169410063157e-03  3.7732637066299054e-03  1.2225087976482760e-03  2.7678568100399869e-03  9.5232127653163592e-04  6.4711003301042773e-04  4.0679094304125595e-03  1.8124477626831018e-03  1.5346881264638537e-03  2.4039662287554564e-03  1.1024382477879222e-03  1.3067442542153581e-03  9.4137808156432190e-04  2.9053163904057709e-03  2.4401202910042346e-03  4.5043780581374449e-04  3.0227557235483907e-03  6.8164077575531704e-04  2.9087607068878684e-03  3.1232972130785272e-03  8.4098243289608453e-04  3.9227121783741231e-04  3.2992476279975801e-03  1.6696194151647949e-03  3.9184232859272401e-03  2.0930169605419208e-03  3.5250793862212485e-03  1.7768866791347236e-03  9.3455070624980227e-04  3.4018812539468813e-04  1.7933758915875445e-03  1.2799088560575083e-03  2.5597274991430411e-03  3.2289389102453329e-03  4.1728719643651041e-03  4.1353400707327846e-03  2.1113289857232543e-03  9.8435010545151833e-04  2.6294754232485092e-03  2.5373147966238374e-03  1.6951361453483901e-03  5.0269756978354985e-04  1.7486554649318170e-03  3.1575774091433476e-03  1.1807311994313132e-03  3.4143484043418003e-03  2.9689465863692163e-03  1.1254252105751940e-03  1.1048758790729891e-03  1.2787618831824428e-03  1.2168246274125759e-03  1.2202772817333906e-03  1.0301623222372012e-03  1.3155534489589613e-03  3.1091588858032259e-04  3.6390452333740640e-03  4.1302282548549224e-03  8.7129187822039024e-04  2.8449713297015104e-03  1.5431576516515178e-03  1.4741791929230020e-03  3.4605085701987651e-03  2.1018181145692366e-03  3.7023573406182744e-04  4.5989893601540441e-03  1.2004727106196217e-03  7.0500746143975208e-04  3.8663371215875652e-03  4.0567670626708669e-03  1.8076146010572067e-03  4.6016339958576680e-04  2.8335131439438423e-03  7.9109202446614175e-04  1.2776542316925673e-03  2.7600215560492631e-03  4.4765445033798229e-03  4.1809263608943289e-03  2.5293496896056779e-03  4.3680507654781696e-03  1.6215511018447511e-03  1.5232890657193513e-03  6.6474203478078270e-04  1.5276575269324297e-03  4.7134092192616670e-04  3.8051901217638147e-03  2.7031227412834505e-03  3.9584486202373396e-03  6.5804736722297320e-04  9.5625012262849206e-04  2.0363485236899064e-03  2.0912083092009658e-03  1.5186178048243405e-03  1.4064184520631632e-03  1.2359004948176396e-03  8.6600152425838804e-04  1.1077960611711455e-03  1.6843537108569223e-03  1.6215685760271239e-03  1.6411074701110880e-03  4.1732355356644614e-04  4.4493134661192906e-03  1.0900778671470645e-03  1.2680653280399427e-03  3.6365064922112296e-04  4.9759918868213472e-03  2.9678807340383739e-03  2.9411305583268662e-03  3.6673547686585013e-03  4.5420630076912317e-04  2.9317437291432832e-03  3.4526666138249402e-04  2.8110420407316990e-03  3.1653058166348806e-03  1.8626705235992344e-03  3.2554758076992546e-03  9.5954483620436812e-04  1.0744411358756189e-03  3.9341264538934233e-03  2.2444397590758282e-03  2.1992048699788673e-03  1.0367220813798862e-03  1.1458930887570640e-03  2.5340253823230132e-03  2.1366809347412954e-03  1.9963134483903574e-03  2.9150883717328864e-03  1.0594835578708846e-03  2.1687936554741646e-03  1.3010258562994809e-03  1.8537323669030488e-03  4.1360710725303401e-04  1.0184523629634475e-03  3.6127519686511437e-03  5.9012155044765630e-04  5.6124870919984065e-04  5.0024740442384836e-04  5.1843042722170675e-04  1.3803149568965875e-03  1.4164774110717560e-03  6.2937318238146759e-04  2.0542970057413840e-03  2.8005656071747806e-03  3.3095667044116431e-03  2.2739809648317411e-03  2.3133108899912082e-03  1.4993250365758256e-03  1.7960484328926644e-03  2.8929338245387596e-03  3.5475702246490264e-04  4.4319008394589137e-03  8.9673829722874238e-04  1.2878314459993366e-03  3.3623900932437936e-03  1.4288467804718218e-03  3.6201281117742342e-03  3.6770845736455986e-03  3.4583839464098240e-03  3.4580368699640403e-03  3.3884640186742101e-03  3.3217480714145039e-03  1.9052094596952269e-03  1.6463813286486553e-03  3.6019678365589486e-03  4.0853346522301834e-03  4.2878811287670043e-03  1.8277268316680673e-03  6.9994398930827589e-04  3.4720652378314817e-04  3.3664760445759366e-04  4.1977418628486775e-03  3.8190816136224053e-03  4.0949710561014856e-03  4.1404053956645322e-03  1.7478144795264538e-03  7.8764305889756064e-04  2.6324994802679066e-03  4.4853390590607475e-04  8.0398199901618949e-04  6.7362298247386986e-04  3.1245379122226860e-03  3.1359039603885050e-03  1.8458853630749737e-03  1.8616681745345911e-03  2.5291835466496296e-03  3.5282582182723371e-03  3.6786559877259135e-03  7.4100772960468777e-04  3.5013776595800626e-04  8.2161071039072331e-04  6.4312085157166730e-04  1.2056222740150573e-03  1.1829054608597125e-03  6.8961022836411571e-04  8.6403686189839173e-04  3.3205320053643563e-03  3.0779482125439712e-03  3.7568196091916279e-03  1.0449449646508760e-03  4.1673728638173431e-03  3.3879760375031898e-03  4.1722795060411381e-04  2.7739916618225217e-03  5.4811177610091151e-04  4.4349350554164675e-03  3.3761892499088985e-04  4.4213253020887033e-03  3.1499200168876945e-04  4.0846692138832930e-03  3.3043235720209014e-04  1.8388174445291266e-03  3.8285031308504775e-04  4.5648894486896536e-04  3.3529562065351973e-04  4.3156051840599792e-03  4.3763335290348173e-03  3.5807809594494666e-04  3.4294752077644846e-04  4.2463793666996314e-03  5.9653881443305320e-04  7.3433443556201994e-04  9.7720665462599056e-04  1.1313267880355290e-03  7.7849354618435621e-04  1.1586914401439828e-03  2.9184505178015750e-03  3.0898029149161042e-03  1.4454735991150346e-03  6.3000480254097441e-04  1.3419654348102261e-03  1.6018441860052518e-03  4.0707711417652212e-04  2.5313168022220562e-03  2.8369295061085264e-03  3.4336368654531413e-03  3.0096766053203357e-03  3.0512812249461042e-03  1.1262482767043884e-03  2.7643345174738986e-03  3.2095695027956339e-03  3.3582163633639225e-03  2.4965210904739936e-03  2.7655859019205210e-03  2.0884157064212363e-03  4.0109363614460687e-04  2.6963917964606763e-03  1.3753578639057768e-03  2.4329189379006968e-03  2.1367223528747179e-03  2.7283447302810689e-03  3.2926889166623500e-03  3.6484427951276642e-03  3.1175742742978892e-03  3.8384056293827703e-03  5.8634149302873816e-04  4.1157557960836951e-03  9.8498487001748617e-04  4.2534354254618219e-03  1.1898876833899893e-03  1.3704280179475856e-03  9.1717906418886013e-04  4.1893931279434176e-03  1.8504506610593871e-03  1.7855590808868098e-03  3.3772039176267967e-03  2.0091278259270497e-03  1.6793843947187344e-03  2.6491096064964652e-03  2.7119248217559967e-03  3.6377936109261268e-04  3.5896379396932357e-03  3.3892815154658480e-03  2.6518451212539768e-03  2.6089511574735871e-03  3.0261257856524400e-03  2.2152277149185160e-03  2.8829201808467119e-03  2.8398479718882200e-03  2.2779398580556861e-03  1.2772800090827333e-03  2.3781921797559830e-03  4.4536624398239949e-04  1.7063598647792094e-03  1.4492530288472783e-03  9.1536391506096568e-04  3.7062509973644943e-03  1.1746552620931761e-03  1.1438254501146584e-03  4.7240577950238507e-04  2.9496633822259422e-03  2.9348838423241428e-03  3.2310471534828457e-03  2.5061810061826795e-03  4.8331265486430174e-04  3.2944064474175718e-04  1.0036962192999216e-03  3.1999746237224833e-03  1.2307542551121492e-03  1.8581848189189502e-03  3.6424168584369836e-04  1.0954594022163930e-03  1.1178810119169219e-03  4.2281316896464042e-04  2.4022014430824011e-03  2.9759506138393155e-03  3.7654446564150111e-03  2.8326143087222711e-03  1.7846765644729578e-03  1.1844897667425195e-03  9.6370432196146965e-04  2.2300565896373093e-03  8.4650995206261381e-04  3.3275915623571309e-03  1.1072944621136652e-03  2.5373872024387128e-03  3.8861137298976784e-04  2.3825784340852575e-03  2.9156983204388989e-03  2.4811799843100233e-03  1.8694307025155603e-03  1.0423386793787890e-03  2.6151686892719270e-03  2.6300006283540849e-03  1.9918768124391312e-03  9.3083892664763538e-04  2.9015017663513378e-03  3.1451077854964494e-04  3.1701420337692583e-04  1.5285886659452406e-03  1.3037124360058452e-03  3.2738865746819450e-03  3.6501377064170281e-03  4.3084895259407887e-03  3.1459344839361394e-03  3.3527468744991914e-04  4.4816807750331852e-03  3.9319949570487071e-03  1.4628072409214633e-03  3.1985571780513648e-03  3.4386136566268936e-03  4.5479240244613835e-03  9.4793059921249097e-04  3.0049503413275931e-03  3.9304651708754459e-03  5.8955136772727941e-04  3.7983163690436844e-03  3.4248140510184693e-04  1.2731405123451887e-03  3.6630193492145908e-03  1.1173808283967764e-03  2.5216605680035893e-03  1.4302519055118339e-03  2.6298893176203383e-03  2.1562764425747775e-03  3.0773872824201515e-03  4.8230930049803736e-04  1.8119721686969846e-03  2.0482947133381173e-03  1.5366113061603503e-03  2.6231844638173255e-03  1.8580645442748040e-03  1.2809386940191572e-03  2.7929241775722980e-03  2.4310416809454173e-03  7.6638766203463479e-04  4.5516312697137613e-03  6.4405341554956124e-03  2.4003019031160915e-03  3.3464854646062660e-03  2.2529182025837740e-03  2.3633559529368940e-03  2.8085933173651804e-03  2.3217785225972750e-03  8.9975344408464676e-04  2.8665226495905613e-03  4.8400777174716395e-04  5.4609901312888739e-04  3.6644142102336555e-03  2.1135981287233839e-03  2.1564940031346264e-03  2.8279763338259641e-03  2.6197226052003197e-03  3.9247748007092097e-03  7.2728682195167692e-04  2.0355508665305306e-03  3.1850210734959113e-03  3.0910846959976649e-03  3.5256602750493738e-03  3.9568951123804159e-03  1.5443735983588099e-03  5.8796115829230370e-03  3.0228446745978279e-03  2.7679761334638443e-03  3.9617583614586912e-03  3.5054669143650282e-03  4.1388507485258241e-03  1.1291309171127402e-03  3.0497346660743156e-03  3.4507482356287414e-03  4.7836143283728566e-04  1.0187681891457637e-03  2.8769963077269474e-03  6.4355503578146251e-04  2.5928332856148821e-03  4.0546794284567698e-04  1.5578216000202789e-03  2.9021508040950211e-03  3.8850296382388050e-04  1.1726294767838703e-03  8.6243193609648070e-04  3.8656217944133046e-04  2.8971058320402619e-03  3.0610132931639437e-03  2.6423519219584677e-03  2.3696560378078028e-03  2.5610120206475046e-03  4.3587825453956239e-03  2.2535461008671934e-03  2.7580732418823113e-03  1.4924862487770934e-03  8.1648761870575359e-04  1.0443995999658538e-03  1.0638736454246843e-03  1.3347204116162283e-03  2.0170032104711915e-03  1.3357845811893393e-03  1.0697507730932480e-03  3.8184045326564793e-04  1.9674480381953793e-03  3.4387405603304999e-03  3.3944361348046377e-03  3.5825318659092552e-03  3.3849884387558075e-03  4.3882014468120669e-03  4.3329187363774875e-03  9.4413060057602267e-04  3.3862002881701662e-04  3.6123682853479494e-04  3.1745450971636298e-04  3.2594085883500198e-03  3.4065106873530936e-04  8.1368838368146867e-04  4.4268214728807233e-03  1.3891635727408627e-03  1.8365694064956138e-03  5.0073657297286663e-04  5.8169125174788877e-04  3.0446498835602583e-03  3.1331394233103877e-03  3.0796917324337745e-03  1.4129640787216367e-03  8.3296027665961112e-04  3.1330498788054040e-03  7.5798526590563418e-04  2.8499696010125925e-03  4.0116761318964849e-04  3.6618590680531919e-04  1.6124327407173820e-03  2.1784009792773741e-03  3.8942679216569256e-03  2.3108546558021905e-03  2.6781836829027185e-03  2.3555404707856034e-03  3.2029783342960071e-03  9.1132438847450357e-04  1.7230469916552239e-03  1.9989760665302973e-03  4.3306321497829717e-03  3.0133369231806831e-03  1.1856016819715490e-03  1.1326914778208791e-03  4.3880473979863834e-03  8.6076762963130393e-04  3.0223858420102127e-03  1.8451949600516277e-03  1.4715851007787199e-03  3.6063563283018009e-03  2.9703664941001539e-03  1.4689542880785438e-03  3.5106230520549181e-04  1.6390467495463869e-03  3.3951719730474975e-04  3.2207136576706936e-03  2.0863789369177377e-03  3.7894501891265571e-03  2.2847589488596766e-03  1.1540233453420