<?xml version="1.0"?>
<VTKFile type="UnstructuredGrid"  version="0.1"  >
<UnstructuredGrid>
<Piece  NumberOfPoints="2446" NumberOfCells="4585">
<Points>
<DataArray  type="Float64"  NumberOfComponents="3"  format="ascii">0 0.41 0  0 0 0  2.2 0 0  2.2 0.41 0  0.2404508497187474 0.2293892626146237 0  0.25 0.2 0  0.2404508497187474 0.1706107373853764 0  0.2154508497187474 0.1524471741852423 0  0.1845491502812526 0.1524471741852423 0  0.1595491502812526 0.1706107373853764 0  0.15 0.2 0  0.1595491502812526 0.2293892626146237 0  0.1845491502812527 0.2475528258147577 0  0.2154508497187474 0.2475528258147577 0  1.1 0 0  1.1 0.41 0  0 0.205 0  0.55 0 0  0.55 0.41 0  0.275 0 0  0.275 0.41 0  1.65 0.41 0  1.65 0 0  0.8250000000000001 0.41 0  0.8250000000000001 0 0  1.375 0 0  1.375 0.41 0  1.925 0 0  1.925 0.41 0  1.5125 0.205 0  1.7875 0.205 0  0.6875 0.205 0  0.9625000000000001 0.205 0  1.2375 0.205 0  2.2 0.205 0  0.4687002074688797 0.2068568464730291 0  1.99375 0.2152743902439024 0  2.0625 0 0  2.0625 0.41 0  2.2 0.3075 0  0.4125 0 0  0.4125 0.41 0  1.7875 0.41 0  1.375 0.1486128048780488 0  1.5125 0 0  1.7875 0 0  1.5125 0.41 0  0.8250000000000001 0.2613871951219511 0  0.9625000000000001 0.41 0  0.9625000000000001 0 0  0.6875 0.41 0  0.6875 0 0  0.1375 0 0  0.1375 0.41 0  1.2375 0 0  1.1 0.1486128048780487 0  1.2375 0.41 0  1.65 0.1486128048780487 0  1.126715909090909 0.2793064024390244 0  1.676715909090909 0.2793064024390244 0  0.8517159090909092 0.1306935975609756 0  1.348284090909091 0.2793064024390244 0  0.34375 0.3032389320646208 0  1.894702181800738 0.1282910975492754 0  2.092797818199262 0.1282910975492754 0  1.85625 0.3075 0  0.61875 0.3075 0  0.61875 0.1025 0  0.3648540804333487 0.1240075933101478 0  0 0.3075 0  0 0.1025 0  2.099172119769978 0.25625 0  0.48125 0.09238439620688085 0  0.5781001037344399 0.2059284232365146 0  0.48125 0.3196743479159776 0  0.7265881057911006 0.3055240343720796 0  1.99375 0.08395950269330846 0  1.459960956013612 0.3075 0  1.569025960719943 0.2986889805672169 0  0.75625 0.08213100772579164 0  1.03125 0.3278689922742084 0  0.923871252904788 0.3078247185783941 0  1.959375 0.3126371951219512 0  1.749222215368287 0.1025 0  1.275777784631713 0.1025 0  2.2 0.1025 0  1.225938124459196 0.3075 0  1.550777784631713 0.1025 0  1.000777784631713 0.1025 0  1.44375 0.07430640243902442 0  1.16875 0.07430640243902437 0  1.899250267340833 0.2229966846119207 0  0.1020898364287272 0.3140258291809757 0  1.766482954545455 0.2934032012195123 0  0.3405058858996321 0.2119987970531874 0  0.7710785630958338 0.1710968191298857 0  1.046078563095834 0.2389031808701144 0  0.2 0.3400647632937836 0  1.421109702350723 0.2261157654379721 0  0.2800464974185557 0.08982544815605742 0  0.098916018031319 0.09171660955420841 0  2.13125 0 0  2.118919042110979 0.3422084711244843 0  1.30625 0.41 0  0.89375 0 0  1.597888256393107 0.2173787389261347 0  0.20625 0 0  1.829299675393195 0.07400700849299596 0  1.71875 0.41 0  1.16875 0.41 0  2.038220665644273 0.332420740103091 0  0.34375 0 0  0.417496017710808 0.2696595573092803 0  0.2 0.07687845740457822 0  0.9295982307099278 0.1343158415898188 0  0.07390688010811153 0.1697064032433452 0  0.5238366813727013 0.2578302467013575 0  0.05452951551825875 0.25625 0  0.5229630068078351 0.1548816096928243 0  1.452769549894695 0.1548122580621249 0  1.369219062229598 0.07430640243902442 0  1.30625 0 0  0.8504409521244898 0.3356935975609756 0  0.8821881244591965 0.205 0  1.720943423819132 0.1714577452753128 0  1.157188124459196 0.205 0  1.094219062229598 0.07430640243902437 0  1.03125 0 0  1.304056576180868 0.1714577452753128 0  1.67579304192913 0.07430640243902437 0  0.2751941921308361 0.3346083473122598 0  1.209670467133757 0.1362100266964769 0  1.025335513626278 0.1700681449722324 0  0.7562500000000001 0.41 0  1.58125 0 0  0.7567170593862014 0.2409196493502535 0  0.6926714215682891 0.1272249611432207 0  0.4139715849905988 0.3397932387114203 0  0.9840787304190477 0.2717749043358119 0  0.06875000000000001 0.41 0  0 0.35875 0  0.9281250000000001 0.06276726142697993 0  0.5507396469029935 0.3219409231578227 0  0.5504468037989405 0.09136885600634273 0  1.58125 0.41 0  1.631724228912893 0.3381867502687533 0  1.825608881788174 0.14499488549201 0  1.85625 0 0  1.44375 0 0  1.44375 0.41 0  1.85625 0.41 0  2.13125 0.41 0  0.7562500000000001 0 0  0.89375 0.41 0  0.4812500000000001 0 0  0.34375 0.41 0  0.4812500000000001 0.41 0  0.20625 0.41 0  0.06875000000000001 0 0  1.16875 0 0  0.61875 0 0  0.61875 0.41 0  1.03125 0.41 0  1.71875 0 0  1.99375 0 0  1.99375 0.41 0  1.340625 0.3489494290853124 0  1.134375 0.3489494290853123 0  1.700180620188976 0.3438659752031281 0  2.135782184673599 0.07126652247502523 0  1.668441847249787 0.2129203728327609 0  1.295782514339747 0.2378437748815763 0  0.8233075729931248 0.06842334294821524 0  1.409375 0.3520314716057996 0  0.403505597322782 0.182067236678212 0  0.378125 0.05794951541303489 0  0.3043468223249023 0.1518321115979534 0  2.129248544730567 0.1906135162504124 0  2.060771381434487 0.1989445750470348 0  2.013252586573865 0.1496169464686054 0  1.942766402200229 0.1734448904596831 0  1.895522487186454 0.06076163953489683 0  2.069553871656643 0.06605731020975725 0  1.274680914880868 0.3520219391081363 0  1.614713220494657 0.09473434380863296 0  0.7899021319497519 0.3149123934144827 0  0.69518737419149 0.0634051089053758 0  0.2971740475496061 0.2592172353407536 0  1.72990325744076 0.2380068107952482 0  1.356580098625191 0.2120393231351682 0  2.034370752044885 0.2668681600792073 0  1.51768709249349 0.3426260931494756 0  1.561883724969884 0.1650446847858835 0  1.197344062229598 0.2523725417393646 0  1.804085235518364 0.3468178408964637 0  1.817887819205233 0.2589243285818559 0  1.905897727272727 0.3485060975609756 0  0.6719798073392919 0.2688965171178177 0  0 0.05125 0  0.653125 0.35875 0  0.6396896119294488 0.1627615407790282 0  0.4274150154087412 0.1242548552168279 0  1.192836486056382 0.3562350748565544 0  0.8279124365364005 0.183856489168822 0  1.097485222388854 0.2083571153401724 0  1.28257088594801 0.2944411014911587 0  1.474860187679412 0.2504218616229368 0  1.406767003493824 0.2829282258560709 0  0.446875 0.04619219810344041 0  0.515625 0.04585361801037557 0  0.592043440706648 0.05125 0  1.845656689180403 0.1998310418452388 0  2.144958525570388 0.2909790873294231 0  0.6171090763650112 0.2492366900333857 0  2.2 0.15375 0  0.5145586920831158 0.3648371739579888 0  1.57794966442982 0.3540357145964566 0  0.721875 0.3633107922168974 0  0.0496154796471391 0.333125 0  0.5843750000000001 0.3662560860076676 0  0.5810878747760798 0.1474002776121195 0  1.508991196088596 0.1421783375065625 0  0.8840670607017558 0.2640994375393898 0  0.09776612425612034 0.2204896805326566 0  1.50436820029908 0.06143401634903343 0  1.223857000523521 0.0823554862453532 0  1.153316824384777 0.1289850171317837 0  2.148922302309752 0.1258841779285271 0  0.309375 0.04312325590431198 0  1.621993280276081 0.2841214267927899 0  1.550118654119087 0.2461998729100966 0  1.327182649291491 0.1216967252533594 0  1.051977450479407 0.1221382572915816 0  1.753125 0.04556020050186112 0  1.271875 0.04556020050186116 0  0.9816084133102366 0.05126138213476004 0  1.039051841454368 0.0572224914831029 0  0.9719230514536006 0.3480477870845102 0  1.94956388244759 0.1180512551534177 0  1.949997712993411 0.04965831614304109 0  1.771961817615021 0.1530278789497521 0  1.909246823951428 0.2812757146784527 0  0.2459536687882397 0.04668633953831142 0  1.948575539857022 0.2445328248721197 0  1.697271520964565 0.1233917627620729 0  0.7964897648514618 0.1211426571931604 0  1.065625 0.3689344961371042 0  1.085849084308977 0.3170853572226867 0  0.4702981435440001 0.260434880697798 0  1.577403511714593 0.05463601888079143 0  0.05622663515370135 0.05493816910862376 0  0.3267207591099919 0.3566194660323104 0  0.9003051618565143 0.3564049499960621 0  1.751571320346033 0.3651102912045228 0  0.1583785085108421 0.2994699345738728 0  0.1455283439499995 0.3542795598723423 0  2.2 0.35875 0  0.2347662494194072 0.298325008655211 0  0.1527284455616188 0.1065771775690181 0  0.1382139529076665 0.05427454456341477 0  0.8749341636311069 0.05110114999892954 0  0.643661668713109 0.05693499781019222 0  1.466879772203159 0.3611261772912453 0  1.990280163552011 0.3564754268533217 0  1.17471064520912 0.2990917256188288 0  0.5202693090594349 0.206382495511728 0  0 0.25625 0  2.2 0.25625 0  2.2 0.05125 0  0 0.15375 0  1.853978576207987 0.35875 0  0.9787513713939683 0.1487523696999336 0  0.240625 0.3722153812029779 0  1.515638456102889 0.2882700110184686 0  0.09048297387599738 0.3637717362208066 0  2.150453692751374 0.2387066338105111 0  1.323782677156475 0.04897634338873398 0  0.8074131292871642 0.3624701995505916 0  1.409375 0.03715320121951221 0  1.406484531114799 0.1087852750766809 0  1.134375 0.03715320121951218 0  1.627401732573545 0.04552157221025036 0  0.1170173172005315 0.1427610859166811 0  2.045405893604797 0.1105340662939892 0  1.255408269734577 0.1577307500159216 0  2.028125 0.03707597992059326 0  0.4743610090857199 0.1421513964721819 0  0.9354010469015898 0.250631300585664 0  0.04420832937638274 0.128125 0  0.8922386349349938 0.0992956419364831 0  0.1197849154434487 0.2663398672460083 0  1.248258025468107 0.2565907092181813 0  0.3746885856929528 0.370723531618974 0  1.203125 0.0366132337404304 0  0.5724622277005015 0.2751253816079333 0  0.3365425205162783 0.08395777655057959 0  2.072662025974815 0.2975086504196739 0  0.4581080832182547 0.3648371739579888 0  0.3874522734668214 0.2295447548840689 0  0.7827853612484443 0.04106550386289586 0  1.887722846421017 0.1760882698830035 0  1.472640588990488 0.1118278026240017 0  1.865937103925594 0.2604137786483804 0  1.463913572748262 0.2030442564990043 0  1.376426316059077 0.3186741374914345 0  0.6641993820150034 0.3141688596240831 0  0.2943117490824315 0.2130987422685822 0  0.3478153998082709 0.1666571081082676 0  0.3427990510599805 0.2575950027870776 0  0.7997118993855807 0.2216171933356366 0  
[...]
<PointData  Scalars="f_10-1"> 
<DataArray  type="Float64"  Name="f_10-1"  format="ascii">6.9175135270480622e-04  1.6776254416257010e-04  1.0796162557030796e-03  2.5774057657521944e-03  2.1639772234906436e-03  1.5459142784688539e-03  8.1736456846931752e-04  3.9311069723083671e-04  3.4204247012495050e-04  3.8531328562204433e-04  4.8108807661687264e-04  8.1320743504944355e-04  1.5224316896034998e-03  2.1331612132392398e-03  5.2581576430279890e-04  3.5367487860779811e-03  3.6750231814649284e-04  2.0654742298215043e-04  4.1652871903334887e-03  1.8872708527067423e-04  4.0871066361162908e-03  2.9867273044124499e-03  8.5984393078070034e-04  3.8628863967145721e-03  3.3793989097139252e-04  7.0602420502072531e-04  3.2430187443552895e-03  9.8634781445738049e-04  2.7662719176832014e-03  1.9390285320208497e-03  1.9014783756052286e-03  1.9992378414138666e-03  1.9955126926472235e-03  1.9715339337383381e-03  1.8418328524070816e-03  2.0050194631693959e-03  1.9430105737126677e-03  1.0407282511928678e-03  2.6640941379232363e-03  2.3939672598558598e-03  1.9291727546852708e-04  4.2503745414089857e-03  2.8728585153838973e-03  1.3970770524906894e-03  7.8738355949548608e-04  9.2574863592581342e-04  3.1101772099221604e-03  2.8603970963309777e-03  3.6972448077025009e-03  4.2988673329823852e-04  4.0252562076166440e-03  2.5713374369562678e-04  1.7546205959861948e-04  2.4374703575165777e-03  6.2028940668680630e-04  1.3174722948907113e-03  3.3839497032701993e-03  1.4507759387234866e-03  2.8530093902450434e-03  2.5149475850520025e-03  9.9359146671045332e-04  2.7055258481328598e-03  4.0200715592703731e-03  1.3568984728944019e-03  1.3908595452602583e-03  2.5842493003138066e-03  3.6841936326994524e-03  5.1215485437900593e-04  3.3722054396206994e-04  5.3909885429172038e-04  2.2085738659512619e-04  2.1778614202345964e-03  3.0930863631474786e-04  2.0060132027284188e-03  4.0029304477962810e-03  3.5151086561203203e-03  1.1639993478782251e-03  2.8475839666827758e-03  2.7141706031782531e-03  4.9969066461400967e-04  3.3689323849637989e-03  3.3127875384806006e-03  2.5461092535767884e-03  1.1718418907223831e-03  9.8465920744167574e-04  1.2866014044952215e-03  3.0304234526022261e-03  1.1029822191264830e-03  8.2925540745504062e-04  9.0110421067773688e-04  7.4790821323867632e-04  2.0180554795122176e-03  4.6153472904458034e-03  2.5581894827362908e-03  2.1524733979721216e-03  1.4635254873311351e-03  2.4303687354370680e-03  5.1377640329066214e-03  2.1630347329756197e-03  2.5577752437534946e-04  2.1813456205779878e-04  1.0632915304235899e-03  2.5543469852334667e-03  3.3114704768887602e-03  3.8274956512745871e-04  2.0387126619762974e-03  1.8369194489053429e-04  1.0715115384868294e-03  2.9282428845603999e-03  3.4593682742623494e-03  2.5755912654558005e-03  1.9170280672983767e-04  3.5197605135548014e-03  2.3900889854176560e-04  1.0836144390531811e-03  3.0963098887287202e-04  3.1255083476975729e-03  4.8442818383562892e-04  9.5675428025228653e-04  1.4686852712971809e-03  8.6311566043034043e-04  6.6157462860807776e-04  3.6239782265764546e-03  1.9990715589472945e-03  1.6373892622440454e-03  1.9796266450037153e-03  7.0223872960462400e-04  4.7972005859896378e-04  1.6066075096484831e-03  1.0099156828101497e-03  4.5230391342081580e-03  1.2324468452453248e-03  1.5416590734122716e-03  3.9469399544086719e-03  8.2550002683244854e-04  2.5994744710956070e-03  8.2078302916443980e-04  4.2003134893491547e-03  2.8743399350282485e-03  1.0623824513102845e-03  6.1897544555967164e-04  5.3063838615251778e-04  3.9165449373742590e-03  3.6802423387472861e-04  3.0473931744392033e-03  2.8806731237083056e-03  1.4511482003729912e-03  9.5691850328232788e-04  7.4577987184887295e-04  3.1747680055072987e-03  2.8174473431213840e-03  2.6142500842654096e-03  2.9432489086425546e-04  3.7819101900175137e-03  1.9588549789434465e-04  4.2333213651449550e-03  4.2187813237445915e-03  3.5760137870395636e-03  1.6942618936869626e-04  5.7508898179482011e-04  2.2736847402958979e-04  4.0986603243416608e-03  3.6180768384023818e-03  8.9302213208027493e-04  1.0128650876503270e-03  2.7138673405746562e-03  3.1785722274547080e-03  3.3817152833973403e-03  2.8508447357811447e-03  1.1629131072521271e-03  1.9858648057084274e-03  2.3230347640434542e-03  4.7840965212747513e-04  3.1233720386801222e-03  1.2706863654024924e-03  2.1387731188537539e-04  5.1082473499157953e-04  1.7603702524412246e-03  1.8214161609288789e-03  1.5030344085460040e-03  1.6559905111112965e-03  1.0530174579049421e-03  1.1274577657567099e-03  3.2520055616929774e-03  1.0825448973800650e-03  3.5311889269552623e-03  3.6193860561394356e-04  3.0061697233532904e-03  2.1785049602844075e-03  2.0327097828606090e-03  2.2666000528511841e-03  2.9926240894168100e-03  1.5736627603206246e-03  2.5217565689701188e-03  2.7826932837821498e-03  2.3051218854064216e-03  2.7132844671645113e-03  3.1156124989241830e-03  1.8138071548771693e-04  3.9931619326855254e-03  1.2390003810225803e-03  4.0943460538701891e-04  3.3522984550341259e-03  1.6769634486032501e-03  2.0269580243240451e-03  2.8813976810249543e-03  2.3788704128755588e-03  2.6996389299776876e-03  2.0814570833901455e-04  2.2326004882243638e-04  2.6054512341906955e-04  1.8537615674362781e-03  2.3449765449949666e-03  2.8501695194624961e-03  1.5380361993903155e-03  4.1640125311154519e-03  2.9833907046156001e-03  3.9266421812444415e-03  8.4162007126899598e-04  4.0944505798064280e-03  9.3742017522111323e-04  1.3723075988940556e-03  2.8493825694297856e-03  4.9479579734569394e-04  8.8055299655574260e-04  8.2546419454753188e-04  1.1425368893430504e-03  1.3864845381540382e-03  2.0450153663493004e-04  2.5800864386673356e-03  2.3105894664661331e-03  1.1508922698466044e-03  1.0288367455316418e-03  9.5149522159090644e-04  6.9492894219647333e-04  5.1952729841953278e-04  5.8415509440376632e-04  3.5559435693620924e-03  1.3100620300348375e-03  1.0426727768139835e-03  1.5002747004687715e-03  2.4090060071487252e-03  2.0698549374671991e-04  2.1560956352422020e-03  1.2818036305950579e-03  8.5247493770436921e-04  3.5333666857125736e-03  3.2311858239427111e-03  3.2636641592708815e-03  8.9549963411011838e-04  1.8454549764586876e-04  4.3417578299305322e-03  3.6827807876223450e-03  2.8708525384809561e-03  5.4255296963804100e-03  4.4818418274921411e-03  2.5433483416687232e-03  3.8248252149025302e-03  2.5730791187159139e-04  1.9757081656368301e-04  4.4249046623123014e-04  3.0278504723564478e-04  3.1017902563924989e-03  2.6748185904363312e-03  3.0047076116296689e-03  2.0056849364353535e-03  4.7028090110410898e-04  2.1446110460026750e-03  1.1269915884769936e-03  2.8323579956562005e-04  2.7768581001388760e-03  1.2699727380054869e-03  4.2784236176728174e-03  2.6731105961517857e-03  1.7402722759763279e-03  2.0559582741534093e-03  7.3637555178711496e-04  3.8189198725060726e-03  7.5928420339289740e-04  1.0853716285859228e-03  5.8398331849414203e-04  8.9446839534555820e-04  2.8642455398942722e-04  1.2917530294454494e-03  1.4571919054007434e-03  1.0497324528501517e-03  6.7547472154067271e-04  2.6365993679307331e-03  2.5077128225019587e-04  7.2768587716119442e-04  3.4681477475585550e-03  2.5416862306432034e-03  4.2764276072086542e-03  6.3055995536649982e-04  3.3469773728984934e-03  2.4166132660501826e-04  2.4128144906357257e-03  4.2139382249071766e-03  2.6710364138080654e-03  3.5065087905333109e-04  1.6744582291504607e-03  1.1327489798321241e-03  2.2957672276938267e-03  1.9259773564887772e-03  2.9864869563661512e-03  3.6879430101143707e-03  2.0452877410385281e-03  7.1415193618204595e-04  3.2953302708275014e-03  2.2693535672576584e-03  2.5162675145178727e-03  2.2429403318653808e-03  1.0768489244407256e-03  1.3890046849009009e-03  8.4521207227640526e-04  2.3218647656069605e-03  2.9539998593684901e-03  2.5870523229419937e-03  1.7896450089929120e-03  3.8251028486074981e-04  2.6891913563286216e-03  1.3837124351327532e-03  2.0765800012875310e-03  2.6886152843309113e-03  2.5877295333560308e-03  3.7464824362824740e-04  2.2406956021461689e-03  2.4975154431325758e-03  2.6389182603310120e-03  2.6293641624021494e-03  1.7859925858531610e-04  3.1998203163648256e-04  3.0165754349123267e-03  1.2440149231391332e-03  2.4679882700925329e-03  1.7980687715258810e-04  2.3800631870830270e-03  1.7007226275587888e-03  7.6653179198666894e-04  1.7806994808717536e-03  3.0777153188676909e-03  3.8233098922194741e-03  8.7643242799736976e-04  9.2826714434260057e-04  3.6563252962458436e-03  3.5940011106736737e-03  1.0900087094818606e-03  2.5863542954536697e-03  7.6358959894909828e-04  4.9970820123887286e-04  3.8877079740846652e-03  1.6552378806314167e-03  1.3801695612967477e-03  2.2413751155362220e-03  9.6770231472658775e-04  1.1680574454356731e-03  8.0603997291318614e-04  2.7289239673097768e-03  2.2738564153085574e-03  2.9337799774104554e-04  2.8453432971363066e-03  5.4171707286834942e-04  2.7357658470985803e-03  2.9465143522895256e-03  6.9626806686345726e-04  2.4387059426579180e-04  3.1130371059970231e-03  1.5240947388857132e-03  3.7380035644664789e-03  1.9358636130586042e-03  3.3467042557610567e-03  1.6287377469345761e-03  7.9738764411211411e-04  1.9428181558385878e-04  1.6376439344147676e-03  1.1215645745688851e-03  2.3944031289172074e-03  3.0571113601156039e-03  3.9959599585465480e-03  3.9579991317147340e-03  1.9496735286888358e-03  8.4032099469182422e-04  2.4633813010484975e-03  2.3726729999855299e-03  1.5412723207131049e-03  3.3952439729412713e-04  1.6012867833914966e-03  2.9839555955152490e-03  1.0473360205183497e-03  3.2404454908696715e-03  2.7915284131175260e-03  9.9122050857333071e-04  9.7227113018854845e-04  1.1416734057300136e-03  1.0747313308107284e-03  1.0811889748157373e-03  8.9474633401599528e-04  1.1735945363530570e-03  1.6816777555320626e-04  3.4625784105114916e-03  3.9549616094159473e-03  6.8362634821541809e-04  2.6676324400431153e-03  1.3942135812770860e-03  1.3178048948590938e-03  3.2852867095805008e-03  1.9220941126093130e-03  2.2595041990407426e-04  4.4244627991420690e-03  1.0629032495721577e-03  5.5776074815903052e-04  3.6866883604004344e-03  3.8774894570590898e-03  1.6549716021691376e-03  3.0062218851390171e-04  2.6651212837809080e-03  6.4522187538311796e-04  1.1421341351907166e-03  2.5918192459799456e-03  4.2937970063901040e-03  3.9965201741054930e-03  2.3647291693221183e-03  4.1844792354867617e-03  1.4628566477250229e-03  1.3639118906208123e-03  5.1347071475430970e-04  1.3691165846358121e-03  3.1712239820821188e-04  3.6299365331546049e-03  2.5356712959777226e-03  3.7784730916799974e-03  4.7973768975762156e-04  8.1989360233661530e-04  1.8809348494437405e-03  1.9329305470859430e-03  1.3735252725833840e-03  1.2582698389798700e-03  1.0914539877851120e-03  7.2820000571485321e-04  9.6131025240743983e-04  1.5354939436802697e-03  1.4706326321376562e-03  1.4956901242248819e-03  2.6206419843327226e-04  4.2696765812358511e-03  9.4539831228299467e-04  1.1214100989626178e-03  2.1438146854917080e-04  4.7972073001460490e-03  2.7950495548252591e-03  2.7681881197075299e-03  3.4937972802358995e-03  2.9652904355670096e-04  2.7608958135903134e-03  1.9816157227815407e-04  2.6426998089547557e-03  2.9881073425884483e-03  1.7097948255072181e-03  3.0778141518048568e-03  8.0803923806196736e-04  9.4136008835674621e-04  3.7556366704526159e-03  2.0841447067000284e-03  2.0402896967872709e-03  8.9474529575162974e-04  9.8549252308038275e-04  2.3649146697749921e-03  1.9788030894490505e-03  1.8419342938034912e-03  2.7415407086747732e-03  9.2100118618314145e-04  2.0082788462167608e-03  1.1508838336873311e-03  1.6966353220736689e-03  2.7059296877029613e-04  8.7842101782336507e-04  3.4347169988795880e-03  4.4932858346835293e-04  4.2010804888317684e-04  3.5962178272600789e-04  3.7673628347223925e-04  1.2432733517104427e-03  1.2781209578625267e-03  4.8915807038843321e-04  1.8990097675544394e-03  2.6212207637557271e-03  3.1371063854493428e-03  2.1128921238354509e-03  2.1507003055363035e-03  1.3560673943351365e-03  1.6458379374189118e-03  2.7241480675152499e-03  2.0785650747753403e-04  4.2500558625232204e-03  7.5066270006939018e-04  1.1272828546536795e-03  3.1884889275174372e-03  1.2745288942385077e-03  3.4411854243499161e-03  3.4973932587217169e-03  3.2801111858646297e-03  3.2790420160489133e-03  3.2105157728139636e-03  3.1471842925069318e-03  1.7505766815436939e-03  1.5017865491553338e-03  3.4224985750762869e-03  3.9044118694340976e-03  4.1072856053349311e-03  1.6646884536554616e-03  5.4520444544025465e-04  2.0165647040638874e-04  1.9203815992548055e-04  4.0187234689851329e-03  3.6434218574333955e-03  3.9162681351490695e-03  3.9608665857426952e-03  1.5990047006008892e-03  6.4896979832798510e-04  2.4665543760197745e-03  3.0111197608088844e-04  6.5208014272790488e-04  5.2404411972459123e-04  2.9506848821287119e-03  2.9581707147581402e-03  1.6956534217716049e-03  1.7111730409814241e-03  2.3625943326409638e-03  3.3490368673100047e-03  3.4993634649265028e-03  6.0184362291588382e-04  2.0532833594447659e-04  6.8469075272898435e-04  5.0404979328386927e-04  1.0736941846365873e-03  1.0512681842395530e-03  5.5108349127837547e-04  7.2762844104749358e-04  3.1420984961642771e-03  2.9004499506085162e-03  3.5768647769632237e-03  9.1125085424339201e-04  3.9862139546943147e-03  3.2092631927462959e-03  2.7545606268388861e-04  2.5899034307649894e-03  4.0798727139575440e-04  4.2521647451190508e-03  1.9347440530995873e-04  4.2390540665008100e-03  1.7191996065622970e-04  3.8999452573039964e-03  1.8596531072270428e-04  1.6509685232434204e-03  2.4051972797331901e-04  3.1531045648366913e-04  1.9051118247926646e-04  4.1339499678292512e-03  4.1944022263546571e-03  2.1514973580850311e-04  1.9940373350824534e-04  4.0649482484081427e-03  4.5692097879262376e-04  5.9636883693919460e-04  8.4244437929085721e-04  9.9924466476025708e-04  6.4105755349482115e-04  1.0269281360623709e-03  2.7406233394579242e-03  2.9129137345143812e-03  1.3052528042380104e-03  4.8529586408839877e-04  1.1966657709134695e-03  1.4495532528267089e-03  2.5697990300184556e-04  2.3668436868953305e-03  2.6680615101297186e-03  3.2573507713387385e-03  2.8366629990724461e-03  2.8779237027765523e-03  9.9308655346568844e-04  2.5932490209697374e-03  3.0339970905399654e-03  3.1800305346867800e-03  2.3320461226719021e-03  2.5940240314283255e-03  1.9318444202309551e-03  2.4872828721587839e-04  2.5292861112249389e-03  1.2345256806117362e-03  2.2697426428575961e-03  1.9779505603820919e-03  2.5572618877663048e-03  3.1147663302490301e-03  3.4723157292974407e-03  2.9459725541814072e-03  3.6585761306629880e-03  4.1602186877218888e-04  3.9411379546162610e-03  8.4938413678498515e-04  4.0724036274504835e-03  1.0574131942444980e-03  1.2330345519322779e-03  7.7257690990027261e-04  4.0085694383089412e-03  1.6962239127883355e-03  1.6126139799154109e-03  3.2009882223119567e-03  1.8548371105109721e-03  1.5325747478984050e-03  2.4625089320681509e-03  2.5377956780441892e-03  2.1494310138740191e-04  3.4151481165926685e-03  3.2162580869437123e-03  2.4856100243065972e-03  2.4391946379525150e-03  2.8492623736811403e-03  2.0543305621610868e-03  2.7093181139534240e-03  2.6686530415965613e-03  2.1176376717304190e-03  1.1407311974340752e-03  2.2122965687904148e-03  2.9602553491114701e-04  1.5506434476726090e-03  1.3036509580496240e-03  7.6736747679886919e-04  3.5285826505559504e-03  1.0344548653036991e-03  1.0052589849941865e-03  3.1293965206470961e-04  2.7727614212791417e-03  2.7649557005754921e-03  3.0533328688818881e-03  2.3379834818201017e-03  3.2773848792250703e-04  1.8474068316729939e-04  8.5095860325271793e-04  3.0224582093300346e-03  1.0829961284255583e-03  1.7049833388176636e-03  2.1593553696236997e-04  9.5298342403601487e-04  9.6937887239142647e-04  2.8031314199635751e-04  2.2372425144430537e-03  2.7990383730679301e-03  3.5890475980654033e-03  2.6585809363730392e-03  1.6303875072851861e-03  1.0342297277760517e-03  8.2794601074308511e-04  2.0707867571214396e-03  7.0345682599713048e-04  3.1525164510065994e-03  9.3855224180292723e-04  2.3719391322691748e-03  2.4515604546301135e-04  2.2201648622771682e-03  2.7460588267129082e-03  2.3173037585361472e-03  1.7168520820122499e-03  9.0299855190640807e-04  2.4478812864630372e-03  2.4621021454263839e-03  1.8380538777677423e-03  7.9446980097827309e-04  2.7242190446678215e-03  1.7126982769617344e-04  1.7345688723452047e-04  1.3812242263761053e-03  1.1655550711375867e-03  3.0987682843382374e-03  3.4728917941526135e-03  4.1289747201584039e-03  2.9702854532440855e-03  1.9010693797754321e-04  4.2982694114210305e-03  3.7560200273042267e-03  1.3218066685672704e-03  3.0276632781097608e-03  3.2601399185245867e-03  4.3691589754945789e-03  8.0656614946128947e-04  2.8279416559433201e-03  3.7502348094964827e-03  4.1842994515505470e-04  3.6244029325750516e-03  1.9708264559291702e-04  1.1386008239765103e-03  3.4871753431227298e-03  9.8282119507644918e-04  2.3573045343949308e-03  1.2857258206319558e-03  2.4616520606651903e-03  1.9967692508913977e-03  2.9061494390339566e-03  3.3566233787569121e-04  1.6562484434338241e-03  1.8897906656212371e-03  1.3817069010901802e-03  2.4564938635313854e-03  1.6979932402726846e-03  1.1467395361989875e-03  2.6252115713941001e-03  2.2657697839352474e-03  6.2363286156288705e-04  4.3675796392005197e-03  6.2602317912186425e-03  2.2371686054498048e-03  3.1730629614402962e-03  2.0926763762671215e-03  2.2014775419427974e-03  2.6394711888536736e-03  2.1606224680771739e-03  7.6286668640057858e-04  2.6928140030958842e-03  3.4241192593462637e-04  4.0144539393664378e-04  3.4867051564085186e-03  1.9521395811532374e-03  1.9951070110978066e-03  2.6589892541569854e-03  2.4538169725527056e-03  3.7461253703301952e-03  5.8704107555965365e-04  1.8805398875498998e-03  3.0131580987554970e-03  2.9207460887048292e-03  3.3519233026208426e-03  3.7784261350454558e-03  1.4027665638639457e-03  5.7012331906372829e-03  2.8516152859275022e-03  2.6001990167029152e-03  3.7820797655747653e-03  3.3267114381780468e-03  3.9579699384749293e-03  9.9241304468500086e-04  2.8794803968161518e-03  3.2747188943167286e-03  3.3263003474093153e-04  8.6094791199130001e-04  2.6994177135409116e-03  5.0372810294817922e-04  2.4270358514499255e-03  2.5964096986258602e-04  1.4093214336828126e-03  2.7302357320146400e-03  2.4136902792816717e-04  1.0206256167967730e-03  7.1400198893867902e-04  2.4027199975990482e-04  2.7259580525667488e-03  2.8838225523985660e-03  2.4687219034445320e-03  2.2049589815045941e-03  2.3887364199335795e-03  4.1771295249134928e-03  2.0937421116406342e-03  2.5852034072852462e-03  1.3403480265115275e-03  6.7851864260568137e-04  9.1016595580542461e-04  9.2986172622902443e-04  1.1915507233158408e-03  1.8559786227034629e-03  1.1873250451329876e-03  9.2493961334040619e-04  2.3184529848156667e-04  1.8112833657259418e-03  3.2619103424274265e-03  3.2195626476547363e-03  3.4052196945194859e-03  3.2115770492440526e-03  4.2065804933464476e-03  4.1525184563737686e-03  8.0333268556150462e-04  1.9243399428568053e-04  2.1298247508653274e-04  1.7391107563493699e-04  3.0733542579714809e-03  1.9501897509114204e-04  6.7228676085998214e-04  4.2438492671600554e-03  1.2345169152422346e-03  1.6865686668951748e-03  3.3628046503342453e-04  4.1184264730954314e-04  2.8706298538255588e-03  2.9569989730929306e-03  2.9082131388275577e-03  1.2724503281240488e-03  6.5135619586954082e-04  2.9625473403939373e-03  5.7326508177158418e-04  2.6670531598982816e-03  2.4773622294959642e-04  2.1682336707035707e-04  1.4674141330962179e-03  2.0196460842752941e-03  3.7176225421958376e-03  2.1499127536179097e-03  2.5108578416247452e-03  2.1938505331037675e-03  3.0284401949069117e-03  7.6954164187335828e-04  1.5728885215379076e-03  1.8445693119411920e-03  4.1491560847394171e-03  2.8373743448880441e-03  1.0509023948257305e-03  9.9989567381569312e-04  4.2087386150555699e-03  7.0527962793444636e-04  2.8470122102645847e-03  1.6865318997522651e-03  1.3277692146163496e-03  3.4271904491984233e-03  2.7988616056545401e-03  1.3155047779436896e-03  2.0726668488757087e-04  1.4928350986159367e-03  1.9426558582610125e-04  3.0466167985227699e-03  1.9234144678288256e-03  3.6147492080011094e-03  2.1243772573703232e-03  1.0087578600667