<?xml version="1.0"?>
<VTKFile type="UnstructuredGrid"  version="0.1"  >
<UnstructuredGrid>
<Piece  NumberOfPoints="2446" NumberOfCells="4585">
<Points>
<DataArray  type="Float64"  NumberOfComponents="3"  format="ascii">0 0.41 0  0 0 0  2.2 0 0  2.2 0.41 0  0.2404508497187474 0.2293892626146237 0  0.25 0.2 0  0.2404508497187474 0.1706107373853764 0  0.2154508497187474 0.1524471741852423 0  0.1845491502812526 0.1524471741852423 0  0.1595491502812526 0.1706107373853764 0  0.15 0.2 0  0.1595491502812526 0.2293892626146237 0  0.1845491502812527 0.2475528258147577 0  0.2154508497187474 0.2475528258147577 0  1.1 0 0  1.1 0.41 0  0 0.205 0  0.55 0 0  0.55 0.41 0  0.275 0 0  0.275 0.41 0  1.65 0.41 0  1.65 0 0  0.8250000000000001 0.41 0  0.8250000000000001 0 0  1.375 0 0  1.375 0.41 0  1.925 0 0  1.925 0.41 0  1.5125 0.205 0  1.7875 0.205 0  0.6875 0.205 0  0.9625000000000001 0.205 0  1.2375 0.205 0  2.2 0.205 0  0.4687002074688797 0.2068568464730291 0  1.99375 0.2152743902439024 0  2.0625 0 0  2.0625 0.41 0  2.2 0.3075 0  0.4125 0 0  0.4125 0.41 0  1.7875 0.41 0  1.375 0.1486128048780488 0  1.5125 0 0  1.7875 0 0  1.5125 0.41 0  0.8250000000000001 0.2613871951219511 0  0.9625000000000001 0.41 0  0.9625000000000001 0 0  0.6875 0.41 0  0.6875 0 0  0.1375 0 0  0.1375 0.41 0  1.2375 0 0  1.1 0.1486128048780487 0  1.2375 0.41 0  1.65 0.1486128048780487 0  1.126715909090909 0.2793064024390244 0  1.676715909090909 0.2793064024390244 0  0.8517159090909092 0.1306935975609756 0  1.348284090909091 0.2793064024390244 0  0.34375 0.3032389320646208 0  1.894702181800738 0.1282910975492754 0  2.092797818199262 0.1282910975492754 0  1.85625 0.3075 0  0.61875 0.3075 0  0.61875 0.1025 0  0.3648540804333487 0.1240075933101478 0  0 0.3075 0  0 0.1025 0  2.099172119769978 0.25625 0  0.48125 0.09238439620688085 0  0.5781001037344399 0.2059284232365146 0  0.48125 0.3196743479159776 0  0.7265881057911006 0.3055240343720796 0  1.99375 0.08395950269330846 0  1.459960956013612 0.3075 0  1.569025960719943 0.2986889805672169 0  0.75625 0.08213100772579164 0  1.03125 0.3278689922742084 0  0.923871252904788 0.3078247185783941 0  1.959375 0.3126371951219512 0  1.749222215368287 0.1025 0  1.275777784631713 0.1025 0  2.2 0.1025 0  1.225938124459196 0.3075 0  1.550777784631713 0.1025 0  1.000777784631713 0.1025 0  1.44375 0.07430640243902442 0  1.16875 0.07430640243902437 0  1.899250267340833 0.2229966846119207 0  0.1020898364287272 0.3140258291809757 0  1.766482954545455 0.2934032012195123 0  0.3405058858996321 0.2119987970531874 0  0.7710785630958338 0.1710968191298857 0  1.046078563095834 0.2389031808701144 0  0.2 0.3400647632937836 0  1.421109702350723 0.2261157654379721 0  0.2800464974185557 0.08982544815605742 0  0.098916018031319 0.09171660955420841 0  2.13125 0 0  2.118919042110979 0.3422084711244843 0  1.30625 0.41 0  0.89375 0 0  1.597888256393107 0.2173787389261347 0  0.20625 0 0  1.829299675393195 0.07400700849299596 0  1.71875 0.41 0  1.16875 0.41 0  2.038220665644273 0.332420740103091 0  0.34375 0 0  0.417496017710808 0.2696595573092803 0  0.2 0.07687845740457822 0  0.9295982307099278 0.1343158415898188 0  0.07390688010811153 0.1697064032433452 0  0.5238366813727013 0.2578302467013575 0  0.05452951551825875 0.25625 0  0.5229630068078351 0.1548816096928243 0  1.452769549894695 0.1548122580621249 0  1.369219062229598 0.07430640243902442 0  1.30625 0 0  0.8504409521244898 0.3356935975609756 0  0.8821881244591965 0.205 0  1.720943423819132 0.1714577452753128 0  1.157188124459196 0.205 0  1.094219062229598 0.07430640243902437 0  1.03125 0 0  1.304056576180868 0.1714577452753128 0  1.67579304192913 0.07430640243902437 0  0.2751941921308361 0.3346083473122598 0  1.209670467133757 0.1362100266964769 0  1.025335513626278 0.1700681449722324 0  0.7562500000000001 0.41 0  1.58125 0 0  0.7567170593862014 0.2409196493502535 0  0.6926714215682891 0.1272249611432207 0  0.4139715849905988 0.3397932387114203 0  0.9840787304190477 0.2717749043358119 0  0.06875000000000001 0.41 0  0 0.35875 0  0.9281250000000001 0.06276726142697993 0  0.5507396469029935 0.3219409231578227 0  0.5504468037989405 0.09136885600634273 0  1.58125 0.41 0  1.631724228912893 0.3381867502687533 0  1.825608881788174 0.14499488549201 0  1.85625 0 0  1.44375 0 0  1.44375 0.41 0  1.85625 0.41 0  2.13125 0.41 0  0.7562500000000001 0 0  0.89375 0.41 0  0.4812500000000001 0 0  0.34375 0.41 0  0.4812500000000001 0.41 0  0.20625 0.41 0  0.06875000000000001 0 0  1.16875 0 0  0.61875 0 0  0.61875 0.41 0  1.03125 0.41 0  1.71875 0 0  1.99375 0 0  1.99375 0.41 0  1.340625 0.3489494290853124 0  1.134375 0.3489494290853123 0  1.700180620188976 0.3438659752031281 0  2.135782184673599 0.07126652247502523 0  1.668441847249787 0.2129203728327609 0  1.295782514339747 0.2378437748815763 0  0.8233075729931248 0.06842334294821524 0  1.409375 0.3520314716057996 0  0.403505597322782 0.182067236678212 0  0.378125 0.05794951541303489 0  0.3043468223249023 0.1518321115979534 0  2.129248544730567 0.1906135162504124 0  2.060771381434487 0.1989445750470348 0  2.013252586573865 0.1496169464686054 0  1.942766402200229 0.1734448904596831 0  1.895522487186454 0.06076163953489683 0  2.069553871656643 0.06605731020975725 0  1.274680914880868 0.3520219391081363 0  1.614713220494657 0.09473434380863296 0  0.7899021319497519 0.3149123934144827 0  0.69518737419149 0.0634051089053758 0  0.2971740475496061 0.2592172353407536 0  1.72990325744076 0.2380068107952482 0  1.356580098625191 0.2120393231351682 0  2.034370752044885 0.2668681600792073 0  1.51768709249349 0.3426260931494756 0  1.561883724969884 0.1650446847858835 0  1.197344062229598 0.2523725417393646 0  1.804085235518364 0.3468178408964637 0  1.817887819205233 0.2589243285818559 0  1.905897727272727 0.3485060975609756 0  0.6719798073392919 0.2688965171178177 0  0 0.05125 0  0.653125 0.35875 0  0.6396896119294488 0.1627615407790282 0  0.4274150154087412 0.1242548552168279 0  1.192836486056382 0.3562350748565544 0  0.8279124365364005 0.183856489168822 0  1.097485222388854 0.2083571153401724 0  1.28257088594801 0.2944411014911587 0  1.474860187679412 0.2504218616229368 0  1.406767003493824 0.2829282258560709 0  0.446875 0.04619219810344041 0  0.515625 0.04585361801037557 0  0.592043440706648 0.05125 0  1.845656689180403 0.1998310418452388 0  2.144958525570388 0.2909790873294231 0  0.6171090763650112 0.2492366900333857 0  2.2 0.15375 0  0.5145586920831158 0.3648371739579888 0  1.57794966442982 0.3540357145964566 0  0.721875 0.3633107922168974 0  0.0496154796471391 0.333125 0  0.5843750000000001 0.3662560860076676 0  0.5810878747760798 0.1474002776121195 0  1.508991196088596 0.1421783375065625 0  0.8840670607017558 0.2640994375393898 0  0.09776612425612034 0.2204896805326566 0  1.50436820029908 0.06143401634903343 0  1.223857000523521 0.0823554862453532 0  1.153316824384777 0.1289850171317837 0  2.148922302309752 0.1258841779285271 0  0.309375 0.04312325590431198 0  1.621993280276081 0.2841214267927899 0  1.550118654119087 0.2461998729100966 0  1.327182649291491 0.1216967252533594 0  1.051977450479407 0.1221382572915816 0  1.753125 0.04556020050186112 0  1.271875 0.04556020050186116 0  0.9816084133102366 0.05126138213476004 0  1.039051841454368 0.0572224914831029 0  0.9719230514536006 0.3480477870845102 0  1.94956388244759 0.1180512551534177 0  1.949997712993411 0.04965831614304109 0  1.771961817615021 0.1530278789497521 0  1.909246823951428 0.2812757146784527 0  0.2459536687882397 0.04668633953831142 0  1.948575539857022 0.2445328248721197 0  1.697271520964565 0.1233917627620729 0  0.7964897648514618 0.1211426571931604 0  1.065625 0.3689344961371042 0  1.085849084308977 0.3170853572226867 0  0.4702981435440001 0.260434880697798 0  1.577403511714593 0.05463601888079143 0  0.05622663515370135 0.05493816910862376 0  0.3267207591099919 0.3566194660323104 0  0.9003051618565143 0.3564049499960621 0  1.751571320346033 0.3651102912045228 0  0.1583785085108421 0.2994699345738728 0  0.1455283439499995 0.3542795598723423 0  2.2 0.35875 0  0.2347662494194072 0.298325008655211 0  0.1527284455616188 0.1065771775690181 0  0.1382139529076665 0.05427454456341477 0  0.8749341636311069 0.05110114999892954 0  0.643661668713109 0.05693499781019222 0  1.466879772203159 0.3611261772912453 0  1.990280163552011 0.3564754268533217 0  1.17471064520912 0.2990917256188288 0  0.5202693090594349 0.206382495511728 0  0 0.25625 0  2.2 0.25625 0  2.2 0.05125 0  0 0.15375 0  1.853978576207987 0.35875 0  0.9787513713939683 0.1487523696999336 0  0.240625 0.3722153812029779 0  1.515638456102889 0.2882700110184686 0  0.09048297387599738 0.3637717362208066 0  2.150453692751374 0.2387066338105111 0  1.323782677156475 0.04897634338873398 0  0.8074131292871642 0.3624701995505916 0  1.409375 0.03715320121951221 0  1.406484531114799 0.1087852750766809 0  1.134375 0.03715320121951218 0  1.627401732573545 0.04552157221025036 0  0.1170173172005315 0.1427610859166811 0  2.045405893604797 0.1105340662939892 0  1.255408269734577 0.1577307500159216 0  2.028125 0.03707597992059326 0  0.4743610090857199 0.1421513964721819 0  0.9354010469015898 0.250631300585664 0  0.04420832937638274 0.128125 0  0.8922386349349938 0.0992956419364831 0  0.1197849154434487 0.2663398672460083 0  1.248258025468107 0.2565907092181813 0  0.3746885856929528 0.370723531618974 0  1.203125 0.0366132337404304 0  0.5724622277005015 0.2751253816079333 0  0.3365425205162783 0.08395777655057959 0  2.072662025974815 0.2975086504196739 0  0.4581080832182547 0.3648371739579888 0  0.3874522734668214 0.2295447548840689 0  0.7827853612484443 0.04106550386289586 0  1.887722846421017 0.1760882698830035 0  1.472640588990488 0.1118278026240017 0  1.865937103925594 0.2604137786483804 0  1.463913572748262 0.2030442564990043 0  1.376426316059077 0.3186741374914345 0  0.6641993820150034 0.3141688596240831 0  0.2943117490824315 0.2130987422685822 0  0.3478153998082709 0.1666571081082676 0  0.3427990510599805 0.2575950027870776 0  0.7997118993855807 0.2216171933356366 0  
[...]
<PointData  Scalars="f_10-1"> 
<DataArray  type="Float64"  Name="f_10-1"  format="ascii">7.9472476686766433e-04  2.4153685752685851e-04  1.1484844892926259e-03  2.6829006432055706e-03  2.2537081032032915e-03  1.6329776310132027e-03  9.0230117442104401e-04  4.7766880436318581e-04  4.2750359524539061e-04  4.7198296037721441e-04  5.6910592063896684e-04  9.0263388979748213e-04  1.6128960979540151e-03  2.2241375275774780e-03  5.9771853480956871e-04  3.6348368078534545e-03  4.5602667790758911e-04  2.8099342066370889e-04  4.2642214532827849e-03  2.6391549786150911e-04  4.1872833763957132e-03  3.0838244552117903e-03  9.2928749014689312e-04  3.9614091718472638e-03  4.1107386033914864e-04  7.7672874322677501e-04  3.3406281693487919e-03  1.0545804312845006e-03  2.8635990398422771e-03  2.0229256393120270e-03  1.9844559708883944e-03  2.0858958055693737e-03  2.0812247894633645e-03  2.0563308125978743e-03  1.9248330225864712e-03  2.0926295891389832e-03  2.0265410556329954e-03  1.1087929002308252e-03  2.7636229827778277e-03  2.4898733446325804e-03  2.6803378116947778e-04  4.3496549138967999e-03  2.9698233206361764e-03  1.4758345175870033e-03  8.5749067532314249e-04  9.9453253122509452e-04  3.2075304658217090e-03  2.9519507858508705e-03  3.7955571667792781e-03  5.0238739246707639e-04  4.1239925644188311e-03  3.3090669829893295e-04  2.4975411178332059e-04  2.5394103342853405e-03  6.9162308575574380e-04  1.3972494868288012e-03  3.4817948540184244e-03  1.5284789970894603e-03  2.9452018720433158e-03  2.6057093004788830e-03  1.0726942106151595e-03  2.7971422019987266e-03  4.1153161303370822e-03  1.4317377439657644e-03  1.4651507998787758e-03  2.6769894197466253e-03  3.7798983845299481e-03  5.8993281725387757e-04  4.1777482063228092e-04  6.3765534180600461e-04  2.9930951556029513e-04  2.2661554216046303e-03  3.8703874215859514e-04  2.0931404394192647e-03  4.0995995805534306e-03  3.6103720122829001e-03  1.2349888053817344e-03  2.9411700145581103e-03  2.8068445891370644e-03  5.7568898629268986e-04  3.4648155926954379e-03  3.4076630675241963e-03  2.6392538255278356e-03  1.2451457995852249e-03  1.0599619794471442e-03  1.3589679268474967e-03  3.1245439268296812e-03  1.1771486736737199e-03  9.0563023755144828e-04  9.7384356528342842e-04  8.2181278412419190e-04  2.1026192002588946e-03  4.7135383959163888e-03  2.6499579594801816e-03  2.2412897370520518e-03  1.5465471467997428e-03  2.5191416881551144e-03  5.2352762922845573e-03  2.2493940133660505e-03  3.3594089227508136e-04  2.9632973059334837e-04  1.1316426044508552e-03  2.6516580377833362e-03  3.4091921318209948e-03  4.5555578204311208e-04  2.1236176091811005e-03  2.5858354542950733e-04  1.1425435113874872e-03  3.0252330620228144e-03  3.5573344554759752e-03  2.6706803529506968e-03  2.6698158465160763e-04  3.6134799046529742e-03  3.1848562330953314e-04  1.1627494616804188e-03  3.9472890401329652e-04  3.2179123736691072e-03  5.7810372718184865e-04  1.0388749123033600e-03  1.5477357180861187e-03  9.3618117863575659e-04  7.3255465055687720e-04  3.7206637102757630e-03  2.0850572949833411e-03  1.7170870406128418e-03  2.0646887507827006e-03  7.7645970132307087e-04  5.5195256172395314e-04  1.6878158290530871e-03  1.0816424048318341e-03  4.6197874791414541e-03  1.3107066958829602e-03  1.6237164578216446e-03  4.0455940607724231e-03  8.9529783561941609e-04  2.6894053662437881e-03  9.0013324345618426e-04  4.2979205072993043e-03  2.9663040736815265e-03  1.1651588929173543e-03  7.2078873742095610e-04  6.0494910547478800e-04  4.0132296808344185e-03  4.4536852706533931e-04  3.1446196825340605e-03  2.9758381472307859e-03  1.5278065653349152e-03  1.0254021541222873e-03  8.1615203869113862e-04  3.2722376987572100e-03  2.9144389511231777e-03  2.7166188597478312e-03  3.6775387799705951e-04  3.8803565228225914e-03  2.7068936776360886e-04  4.3329528093073418e-03  4.3178681558822350e-03  3.6770255388744763e-03  2.4330451825674824e-04  6.4673835032399431e-04  3.0147456579160284e-04  4.1974830813074192e-03  3.7162995758259847e-03  9.6211901793422290e-04  1.0808856178863477e-03  2.8118649128422162e-03  3.2748988506304082e-03  3.4784232212922142e-03  2.9461911458809405e-03  1.2330346005646419e-03  2.0700736292711456e-03  2.4109440964394505e-03  5.5341070310852166e-04  3.2196713695625584e-03  1.3556180656600636e-03  2.9066306388218847e-04  5.9397062624141862e-04  1.8412234347631232e-03  1.9030846594829587e-03  1.5794944136284649e-03  1.7351003830812907e-03  1.1230349193075788e-03  1.1972253580911538e-03  3.3485724108439051e-03  1.1558701619614779e-03  3.6268786264218983e-03  4.3724244754127277e-04  3.0981952852665502e-03  2.2651324746017169e-03  2.1178369813644122e-03  2.3557250280098621e-03  3.0882734638461719e-03  1.6533058196996912e-03  2.6113505269256617e-03  2.8780288739167735e-03  2.3936212337823206e-03  2.8086977129911849e-03  3.2083423563014136e-03  2.5642527407168019e-04  4.0911825723614972e-03  1.3216156055180508e-03  4.8937844698050486e-04  3.4492014550296813e-03  1.7610398838487399e-03  2.1125544241759782e-03  2.9744238948208918e-03  2.4674960735172682e-03  2.7914135262788408e-03  2.8401164883961065e-04  2.9876357821599051e-04  3.3582468986984401e-04  1.9359923312016239e-03  2.4377356677318103e-03  2.9414024706899775e-03  1.6150944449044022e-03  4.2624368212794105e-03  3.0794550105409865e-03  4.0246782160724744e-03  9.4190033768030718e-04  4.1927953089676163e-03  1.0187650697354182e-03  1.4499568202184590e-03  2.9409686857184421e-03  5.8457065990916472e-04  9.5235639564469031e-04  8.9961349298601113e-04  1.2203928017051559e-03  1.4606148731887128e-03  2.8095449174974285e-04  2.6714192726092455e-03  2.3985827386452758e-03  1.2274685653712808e-03  1.1065043741725375e-03  1.0214237151039468e-03  7.6704068269020252e-04  5.9309068993577670e-04  6.5774625436160834e-04  3.6529391873715280e-03  1.3837914288321739e-03  1.1119215595035000e-03  1.5779216819485247e-03  2.4994593768758798e-03  2.8379879156769386e-04  2.2428500837636356e-03  1.3570292992970765e-03  9.3100377376647582e-04  3.6309346100767610e-03  3.3262764233992128e-03  3.3565284655579439e-03  9.6666272941325741e-04  2.5986202702832747e-04  4.4401102330898440e-03  3.7802639582950400e-03  2.9670489210804596e-03  5.5205396990645394e-03  4.5816757763195784e-03  2.6451579221974126e-03  3.9182963320498832e-03  3.3839772938473142e-04  2.7387456571443706e-04  5.1649151852061815e-04  3.7802897466501008e-04  3.1983546512251815e-03  2.7710433395846160e-03  3.0983504273019613e-03  2.0930634634069014e-03  5.6420274015731334e-04  2.2340931331144374e-03  1.1965375469354829e-03  3.6640184438287664e-04  2.8727173870778618e-03  1.3501976218179745e-03  4.3780091328399218e-03  2.7650546402716450e-03  1.8418559612827553e-03  2.1426612642071381e-03  8.0839066399526825e-04  3.9167750434332344e-03  8.3051597818005474e-04  1.1606000256108322e-03  6.5639088481395905e-04  9.6500618016483338e-04  3.6987029182414174e-04  1.3645532656161893e-03  1.5372479801209194e-03  1.1183249726943985e-03  7.5655368975778656e-04  2.7268206516408724e-03  3.3160828441301462e-04  8.0424493507987342e-04  3.5614612390407101e-03  2.6315257143113037e-03  4.3752956702041565e-03  7.0267466733557539e-04  3.4405972766834679e-03  3.2037226689934705e-04  2.5052358064337589e-03  4.3124527269404181e-03  2.7615662966902271e-03  4.2470031512580612e-04  1.7540225512109910e-03  1.2079470027873554e-03  2.3843015245434088e-03  2.0098315634028479e-03  3.0810445751280843e-03  3.7839333421966523e-03  2.1339690520000730e-03  7.9741800891737589e-04  3.3880994420463148e-03  2.3572694556957307e-03  2.6072475742984066e-03  2.3304796121375038e-03  1.1454811715840454e-03  1.4719006815644752e-03  9.2426057148919461e-04  2.4098547784485399e-03  3.0466746944679277e-03  2.6770496159303344e-03  1.8722821953299016e-03  4.6583620119113847e-04  2.7878356760364579e-03  1.4608841219166556e-03  2.1638314765245739e-03  2.7790503951923254e-03  2.6801963414644463e-03  4.6359272870145088e-04  2.3290061907156791e-03  2.5952352245157593e-03  2.7396547080958387e-03  2.7272233365255014e-03  2.5329545250084377e-04  3.9424378512224533e-04  3.1137366702946164e-03  1.3179632092704824e-03  2.5603452939390470e-03  2.5442044919902725e-04  2.4685777517411160e-03  1.7832670667504858e-03  8.3676888344669134e-04  1.8624981697084693e-03  3.1749948211873221e-03  3.9218053221527389e-03  9.4569555855117686e-04  9.9834384630677971e-04  3.7545836623758713e-03  3.6916492434363223e-03  1.1588515740398953e-03  2.6882405309288189e-03  8.6654652382105657e-04  5.7678914979163761e-04  3.9857839422904173e-03  1.7386833030604626e-03  1.4618802716895617e-03  2.3286751100276251e-03  1.0373509121105505e-03  1.2402331197545438e-03  8.7598502836668728e-04  2.8254461516693564e-03  2.3627403708398739e-03  3.7626762845301490e-04  2.9423275757047805e-03  6.1433279009144733e-04  2.8297844633465514e-03  3.0429403225417082e-03  7.7182808381210180e-04  3.2143279149410308e-04  3.2144807718502860e-03  1.6007609866651484e-03  3.8363610278707217e-03  2.0196501827764147e-03  3.4439238678431864e-03  1.7071474974507683e-03  8.6844376379990212e-04  2.7016638062058053e-04  1.7202426327050167e-03  1.2054212208967782e-03  2.4834292430462378e-03  3.1497951720490859e-03  4.0916019262339674e-03  4.0539582694305047e-03  2.0358297846204054e-03  9.1554133794076410e-04  2.5524452211522935e-03  2.4609924807465094e-03  1.6227263950455717e-03  4.2624101570345557e-04  1.6793789262096054e-03  3.0781550540238578e-03  1.1162602605264277e-03  3.3345117702415408e-03  2.8886468471813528e-03  1.0605599412384628e-03  1.0406346933047250e-03  1.2128682584331386e-03  1.1489181413231739e-03  1.1535564823416814e-03  9.6477692953112512e-04  1.2477585235543837e-03  2.4196902938032063e-04  3.5583205493675439e-03  4.0494815078570019e-03  7.8590130042855593e-04  2.7652184754684340e-03  1.4726995970559987e-03  1.4005623905579254e-03  3.3803020523387331e-03  2.0193203181296214e-03  3.0102792049178744e-04  4.5184495166413772e-03  1.1343340876890963e-03  6.3477300334999838e-04  3.7845364226377427e-03  3.9749000667802228e-03  1.7358499698335217e-03  3.8503614300970277e-04  2.7558621635984121e-03  7.2144907060315102e-04  1.2124315726447386e-03  2.6826105494463844e-03  4.3931099397538894e-03  4.0968165212563780e-03  2.4532646499413218e-03  4.2843636238527726e-03  1.5470368946560282e-03  1.4484556067402734e-03  5.9288729890470291e-04  1.4531677523345746e-03  3.9827698404826484e-04  3.7246033449508946e-03  2.6253903001877792e-03  3.8764797457795422e-03  5.7605978906613412e-04  8.9046745302830989e-04  1.9637036096335713e-03  2.0172801329303180e-03  1.4497127820234728e-03  1.3361850544068986e-03  1.1670630716451851e-03  7.9961381472177780e-04  1.0380585198341522e-03  1.6140582152106937e-03  1.5503435255869356e-03  1.5722028241470531e-03  3.4377150801935010e-04  4.3670486828791995e-03  1.0210624202375677e-03  1.1983520320239562e-03  2.9229857201514616e-04  4.8939540076883697e-03  2.8888948282198685e-03  2.8621373952335328e-03  3.5872850571527239e-03  3.7979548610130764e-04  2.8525605783532265e-03  2.7470599318817784e-04  2.7329498373226805e-03  3.0847843795028646e-03  1.7908748963897094e-03  3.1747418812535589e-03  8.8769877721668611e-04  1.0099851266121449e-03  3.8525819126005879e-03  2.1703354086445139e-03  2.1255124317683819e-03  9.6876320738403050e-04  1.0705795049571760e-03  2.4571295215217153e-03  2.0635786779809122e-03  1.9246007586432765e-03  2.8359368023710006e-03  9.9291818798107642e-04  2.0938985115310682e-03  1.2299006326752160e-03  1.7800535001845643e-03  3.4494104281901263e-04  9.5125712323167199e-04  3.5316244979914976e-03  5.2242778605829463e-04  4.9340354335146821e-04  4.3258179714768529e-04  4.5034492521358715e-04  1.3148198116741065e-03  1.3503513506767685e-03  5.6192679056949444e-04  1.9818146382670778e-03  2.7208729341525744e-03  3.2301699789804190e-03  2.1989895268485545e-03  2.2375896787393051e-03  1.4311412389892537e-03  1.7253131589030910e-03  2.8147416618766927e-03  2.8444652262313785e-04  4.3489136683012098e-03  8.2706077581121574e-04  1.2124778511172533e-03  3.2826300176038840e-03  1.3560617761103932e-03  3.5387286772964686e-03  3.5954185006785884e-03  3.3773108099614388e-03  3.3767413581589161e-03  3.3075434368045574e-03  3.2418765912170843e-03  1.8326916611768485e-03  1.5779810310131753e-03  3.5204237370576037e-03  4.0029955761172499e-03  4.2054386430644278e-03  1.7514917903403342e-03  6.2673943116088062e-04  2.7744441452302149e-04  2.6723603267977681e-04  4.1158241222149054e-03  3.7383761851484528e-03  4.0132242784207735e-03  4.0583914009076297e-03  1.6776108470057771e-03  7.2087714420726113e-04  2.5556001536879446e-03  3.7811850383475190e-04  7.3192218748650720e-04  6.0244290635149463e-04  3.0450857168041918e-03  3.0552359244525908e-03  1.7752554934873719e-03  1.7909825330825141e-03  2.4526742707305644e-03  3.4468429728598351e-03  3.5971074487660044e-03  6.7402710968881749e-04  2.8069437941812317e-04  7.5555018676896901e-04  5.7613550558398676e-04  1.1423530851553424e-03  1.1194011279498321e-03  6.2286031082127956e-04  7.9819461227611187e-04  3.2395078417373846e-03  2.9974115619651885e-03  3.6750159956400585e-03  9.8023308180043324e-04  4.0848972146668361e-03  3.3068174787140711e-03  3.4906400250935389e-04  2.6941586293616074e-03  4.8066699162437873e-04  4.3515979998925841e-03  2.6842109256338970e-04  4.3382276588362348e-03  2.4596333130313144e-04  4.0005040489414561e-03  2.6098813477111986e-04  1.7533959391809672e-03  3.1444231440110130e-04  3.8858228929240411e-04  2.6577681283953544e-04  4.2328449110793287e-03  4.2934171965302217e-03  2.8941058845273867e-04  2.7401274117147588e-04  4.1637547803402850e-03  5.2931646804107253e-04  6.6782531050175304e-04  9.1205158099452320e-04  1.0673427798203775e-03  7.1221193938276334e-04  1.0949366969343257e-03  2.8382558907115805e-03  3.0094409949429036e-03  1.3784921345686139e-03  5.6075839528299672e-04  1.2728508878366346e-03  1.5300280838879633e-03  3.3558343030432156e-04  2.4551836607255967e-03  2.7592026911305943e-03  3.3531725713857935e-03  2.9305929609972897e-03  2.9720517649075018e-03  1.0618018133603006e-03  2.6850063145399602e-03  3.1295229624519324e-03  3.2772439912309888e-03  2.4205831695385612e-03  2.6872390313466220e-03  2.0153333183733886e-03  3.2868748687124897e-04  2.6188653262564118e-03  1.3080457138214025e-03  2.3574330394026287e-03  2.0626366967198126e-03  2.6502090902844702e-03  3.2118459672890202e-03  3.5677930987632472e-03  3.0387101932652814e-03  3.7565757683493081e-03  5.0727108165304219e-04  4.0352199054514539e-03  9.1950830210383065e-04  4.1709107005395065e-03  1.1258900860595909e-03  1.3045915564204396e-03  8.4810608188847045e-04  4.1069878758640656e-03  1.7780425344940522e-03  1.7055337263041739e-03  3.2968134804752763e-03  1.9369794987823834e-03  1.6099366598589860e-03  2.5641520766749551e-03  2.6333467428446395e-03  2.9265709622270573e-04  3.5094375422964857e-03  3.3096514339732413e-03  2.5747979160190408e-03  2.5315362633812726e-03  2.9458463288775287e-03  2.1402156389004048e-03  2.8037960734992344e-03  2.7614946317397900e-03  2.2035754085308525e-03  1.2116068416887457e-03  2.3027006736157599e-03  3.7419202161741296e-04  1.6331604014444877e-03  1.3800910038764018e-03  8.4491774205909477e-04  3.6251414403055552e-03  1.1074739180896476e-03  1.0772687967549207e-03  3.9732084966414335e-04  2.8695398887131737e-03  2.8560977798933076e-03  3.1503136856923489e-03  2.4280135582358166e-03  4.0972758300985537e-04  2.5984685695590033e-04  9.3137052718182786e-04  3.1193263537765514e-03  1.1605674900100043e-03  1.7862399972868816e-03  2.9336975458713131e-04  1.0273323492711137e-03  1.0473271785926750e-03  3.5435903869318494e-04  2.3254124944635983e-03  2.8957545486446310e-03  3.6846014825882211e-03  2.7534926891897992e-03  1.7121670923608118e-03  1.1132512888947163e-03  8.9815750777093154e-04  2.1560479401963309e-03  7.7802614119113422e-04  3.2475751235064962e-03  1.0288054895859053e-03  2.4611210099966898e-03  3.1975255428002034e-04  2.3071429916861402e-03  2.8376380036742891e-03  2.4051613790529330e-03  1.7977748196355361e-03  9.7542808253214157e-04  2.5382654562613183e-03  2.5529045061645438e-03  1.9201198525178103e-03  8.6504040085708198e-04  2.8214773612515965e-03  2.4537695499234969e-04  2.4776522730732698e-04  1.4587702933943527e-03  1.2374099718279576e-03  3.1939140993967156e-03  3.5685533825935548e-03  4.2263444610829903e-03  3.0659182518255950e-03  2.6555054201563060e-04  4.3979552552090313e-03  3.8511251632049460e-03  1.3955146949168303e-03  3.1195021942584220e-03  3.3574935316840171e-03  4.4659335231049431e-03  8.8017103511640210e-04  2.9246659061140513e-03  3.8484474901009061e-03  5.1018779898689688e-04  3.7180693462335909e-03  2.7275551624033695e-04  1.2084078749994473e-03  3.5824215008063609e-03  1.0523708173354974e-03  2.4455022391246142e-03  1.3615093211390560e-03  2.5527048368314187e-03  2.0829880728184666e-03  2.9986731279653895e-03  4.1222004268968033e-04  1.7388603350326382e-03  1.9741914226961872e-03  1.4636420993416951e-03  2.5464235204463318e-03  1.7830867979038720e-03  1.2165562651687140e-03  2.7154230158291126e-03  2.3552214509738613e-03  6.9798650471742459e-04  4.4675943712628495e-03  6.3578747796783899e-03  2.3249538776619057e-03  3.2668527818473744e-03  2.1783466108272701e-03  2.2882264005031272e-03  2.7308680370678648e-03  2.2469331305281729e-03  8.3373934330880891e-04  2.7873973341651409e-03  4.1594630498366348e-04  4.7683777066020338e-04  3.5833330892336935e-03  2.0381914059478998e-03  2.0811641131149952e-03  2.7502457832807364e-03  2.5431231516313498e-03  3.8431968682565792e-03  6.5987053172652621e-04  1.9631131812159566e-03  3.1059726428121258e-03  3.0123764329394753e-03  3.4456993829554373e-03  3.8753346269721576e-03  1.4772794215682425e-03  5.7976830500060623e-03  2.9442338278579130e-03  2.6906201827744517e-03  3.8798691059127180e-03  3.4242109062136978e-03  4.0564767899010350e-03  1.0632868212706980e-03  2.9712051548709088e-03  3.3703385429906794e-03  4.0863666016867963e-04  9.4442973423140809e-04  2.7970393575734642e-03  5.7626929042438454e-04  2.5158904790587443e-03  3.3566527883986078e-04  1.4875597042512162e-03  2.8235109397298486e-03  3.1816542949827335e-04  1.1006708673779702e-03  7.9178749302734341e-04  3.1655951392556731e-04  2.8177755332146098e-03  2.9805895696513787e-03  2.5642797980513585e-03  2.2943101321692195e-03  2.4836495313594175e-03  4.2759677079425937e-03  2.1793780376023982e-03  2.6794535613327074e-03  1.4206529126770872e-03  7.5001231538566917e-04  9.7947826114927624e-04  9.9904781211649198e-04  1.2664567937273124e-03  1.9417136609429125e-03  1.2653750626650151e-03  1.0006712274507161e-03  3.1034740574771032e-04  1.8943212145503554e-03  3.3581152296168555e-03  3.3143975326986527e-03  3.5016368873943085e-03  3.3052962223420060e-03  4.3053522135596987e-03  4.2504866796473709e-03  8.7659463089093006e-04  2.6841745133692222e-04  2.9035559866252955e-04  2.4822333053650816e-04  3.1746759279689405e-03  2.7077986541292276e-04  7.4585026084827391e-04  4.3433530385057527e-03  1.3162214385429611e-03  1.7664934068258205e-03  4.2380943720173037e-04  5.0279272211160267e-04  2.9652264353652912e-03  3.0529787516991058e-03  3.0002316208612369e-03  1.3458107488799275e-03  7.4977257605165549e-04  3.0541171890402551e-03  6.7366270297981325e-04  2.7663149455133488e-03  3.2830797674050479e-04  2.9483833258352779e-04  1.5436508430023061e-03  2.1049031007484287e-03  3.8132413765081460e-03  2.2361052155392821e-03  2.6011523436238293e-03  2.2805449106182308e-03  3.1232455256483909e-03  8.4338011519472823e-04  1.6522488259635986e-03  1.9267268766459558e-03  4.2479021317789372e-03  2.9333401925825137e-03  1.1205876356419663e-03  1.0684035813867648e-03  4.3059208655367312e-03  7.8730807332721433e-04  2.9425601098088303e-03  1.7708204624818447e-03  1.4031560091167295e-03  3.5249005597198439e-03  2.8917640615809788e-03  1.3965552079046456e-03  2.8203475210987592e-04  1.5697972591232844e-03  2.6982599791253853e-04  3.1410861452094859e-03  2.0102736727897847e-03  3.7090194637416497e-03  2.2102919214125943e-03  1.0848067114619