<?xml version="1.0"?>
<VTKFile type="UnstructuredGrid"  version="0.1"  >
<UnstructuredGrid>
<Piece  NumberOfPoints="2446" NumberOfCells="4585">
<Points>
<DataArray  type="Float64"  NumberOfComponents="3"  format="ascii">0 0.41 0  0 0 0  2.2 0 0  2.2 0.41 0  0.2404508497187474 0.2293892626146237 0  0.25 0.2 0  0.2404508497187474 0.1706107373853764 0  0.2154508497187474 0.1524471741852423 0  0.1845491502812526 0.1524471741852423 0  0.1595491502812526 0.1706107373853764 0  0.15 0.2 0  0.1595491502812526 0.2293892626146237 0  0.1845491502812527 0.2475528258147577 0  0.2154508497187474 0.2475528258147577 0  1.1 0 0  1.1 0.41 0  0 0.205 0  0.55 0 0  0.55 0.41 0  0.275 0 0  0.275 0.41 0  1.65 0.41 0  1.65 0 0  0.8250000000000001 0.41 0  0.8250000000000001 0 0  1.375 0 0  1.375 0.41 0  1.925 0 0  1.925 0.41 0  1.5125 0.205 0  1.7875 0.205 0  0.6875 0.205 0  0.9625000000000001 0.205 0  1.2375 0.205 0  2.2 0.205 0  0.4687002074688797 0.2068568464730291 0  1.99375 0.2152743902439024 0  2.0625 0 0  2.0625 0.41 0  2.2 0.3075 0  0.4125 0 0  0.4125 0.41 0  1.7875 0.41 0  1.375 0.1486128048780488 0  1.5125 0 0  1.7875 0 0  1.5125 0.41 0  0.8250000000000001 0.2613871951219511 0  0.9625000000000001 0.41 0  0.9625000000000001 0 0  0.6875 0.41 0  0.6875 0 0  0.1375 0 0  0.1375 0.41 0  1.2375 0 0  1.1 0.1486128048780487 0  1.2375 0.41 0  1.65 0.1486128048780487 0  1.126715909090909 0.2793064024390244 0  1.676715909090909 0.2793064024390244 0  0.8517159090909092 0.1306935975609756 0  1.348284090909091 0.2793064024390244 0  0.34375 0.3032389320646208 0  1.894702181800738 0.1282910975492754 0  2.092797818199262 0.1282910975492754 0  1.85625 0.3075 0  0.61875 0.3075 0  0.61875 0.1025 0  0.3648540804333487 0.1240075933101478 0  0 0.3075 0  0 0.1025 0  2.099172119769978 0.25625 0  0.48125 0.09238439620688085 0  0.5781001037344399 0.2059284232365146 0  0.48125 0.3196743479159776 0  0.7265881057911006 0.3055240343720796 0  1.99375 0.08395950269330846 0  1.459960956013612 0.3075 0  1.569025960719943 0.2986889805672169 0  0.75625 0.08213100772579164 0  1.03125 0.3278689922742084 0  0.923871252904788 0.3078247185783941 0  1.959375 0.3126371951219512 0  1.749222215368287 0.1025 0  1.275777784631713 0.1025 0  2.2 0.1025 0  1.225938124459196 0.3075 0  1.550777784631713 0.1025 0  1.000777784631713 0.1025 0  1.44375 0.07430640243902442 0  1.16875 0.07430640243902437 0  1.899250267340833 0.2229966846119207 0  0.1020898364287272 0.3140258291809757 0  1.766482954545455 0.2934032012195123 0  0.3405058858996321 0.2119987970531874 0  0.7710785630958338 0.1710968191298857 0  1.046078563095834 0.2389031808701144 0  0.2 0.3400647632937836 0  1.421109702350723 0.2261157654379721 0  0.2800464974185557 0.08982544815605742 0  0.098916018031319 0.09171660955420841 0  2.13125 0 0  2.118919042110979 0.3422084711244843 0  1.30625 0.41 0  0.89375 0 0  1.597888256393107 0.2173787389261347 0  0.20625 0 0  1.829299675393195 0.07400700849299596 0  1.71875 0.41 0  1.16875 0.41 0  2.038220665644273 0.332420740103091 0  0.34375 0 0  0.417496017710808 0.2696595573092803 0  0.2 0.07687845740457822 0  0.9295982307099278 0.1343158415898188 0  0.07390688010811153 0.1697064032433452 0  0.5238366813727013 0.2578302467013575 0  0.05452951551825875 0.25625 0  0.5229630068078351 0.1548816096928243 0  1.452769549894695 0.1548122580621249 0  1.369219062229598 0.07430640243902442 0  1.30625 0 0  0.8504409521244898 0.3356935975609756 0  0.8821881244591965 0.205 0  1.720943423819132 0.1714577452753128 0  1.157188124459196 0.205 0  1.094219062229598 0.07430640243902437 0  1.03125 0 0  1.304056576180868 0.1714577452753128 0  1.67579304192913 0.07430640243902437 0  0.2751941921308361 0.3346083473122598 0  1.209670467133757 0.1362100266964769 0  1.025335513626278 0.1700681449722324 0  0.7562500000000001 0.41 0  1.58125 0 0  0.7567170593862014 0.2409196493502535 0  0.6926714215682891 0.1272249611432207 0  0.4139715849905988 0.3397932387114203 0  0.9840787304190477 0.2717749043358119 0  0.06875000000000001 0.41 0  0 0.35875 0  0.9281250000000001 0.06276726142697993 0  0.5507396469029935 0.3219409231578227 0  0.5504468037989405 0.09136885600634273 0  1.58125 0.41 0  1.631724228912893 0.3381867502687533 0  1.825608881788174 0.14499488549201 0  1.85625 0 0  1.44375 0 0  1.44375 0.41 0  1.85625 0.41 0  2.13125 0.41 0  0.7562500000000001 0 0  0.89375 0.41 0  0.4812500000000001 0 0  0.34375 0.41 0  0.4812500000000001 0.41 0  0.20625 0.41 0  0.06875000000000001 0 0  1.16875 0 0  0.61875 0 0  0.61875 0.41 0  1.03125 0.41 0  1.71875 0 0  1.99375 0 0  1.99375 0.41 0  1.340625 0.3489494290853124 0  1.134375 0.3489494290853123 0  1.700180620188976 0.3438659752031281 0  2.135782184673599 0.07126652247502523 0  1.668441847249787 0.2129203728327609 0  1.295782514339747 0.2378437748815763 0  0.8233075729931248 0.06842334294821524 0  1.409375 0.3520314716057996 0  0.403505597322782 0.182067236678212 0  0.378125 0.05794951541303489 0  0.3043468223249023 0.1518321115979534 0  2.129248544730567 0.1906135162504124 0  2.060771381434487 0.1989445750470348 0  2.013252586573865 0.1496169464686054 0  1.942766402200229 0.1734448904596831 0  1.895522487186454 0.06076163953489683 0  2.069553871656643 0.06605731020975725 0  1.274680914880868 0.3520219391081363 0  1.614713220494657 0.09473434380863296 0  0.7899021319497519 0.3149123934144827 0  0.69518737419149 0.0634051089053758 0  0.2971740475496061 0.2592172353407536 0  1.72990325744076 0.2380068107952482 0  1.356580098625191 0.2120393231351682 0  2.034370752044885 0.2668681600792073 0  1.51768709249349 0.3426260931494756 0  1.561883724969884 0.1650446847858835 0  1.197344062229598 0.2523725417393646 0  1.804085235518364 0.3468178408964637 0  1.817887819205233 0.2589243285818559 0  1.905897727272727 0.3485060975609756 0  0.6719798073392919 0.2688965171178177 0  0 0.05125 0  0.653125 0.35875 0  0.6396896119294488 0.1627615407790282 0  0.4274150154087412 0.1242548552168279 0  1.192836486056382 0.3562350748565544 0  0.8279124365364005 0.183856489168822 0  1.097485222388854 0.2083571153401724 0  1.28257088594801 0.2944411014911587 0  1.474860187679412 0.2504218616229368 0  1.406767003493824 0.2829282258560709 0  0.446875 0.04619219810344041 0  0.515625 0.04585361801037557 0  0.592043440706648 0.05125 0  1.845656689180403 0.1998310418452388 0  2.144958525570388 0.2909790873294231 0  0.6171090763650112 0.2492366900333857 0  2.2 0.15375 0  0.5145586920831158 0.3648371739579888 0  1.57794966442982 0.3540357145964566 0  0.721875 0.3633107922168974 0  0.0496154796471391 0.333125 0  0.5843750000000001 0.3662560860076676 0  0.5810878747760798 0.1474002776121195 0  1.508991196088596 0.1421783375065625 0  0.8840670607017558 0.2640994375393898 0  0.09776612425612034 0.2204896805326566 0  1.50436820029908 0.06143401634903343 0  1.223857000523521 0.0823554862453532 0  1.153316824384777 0.1289850171317837 0  2.148922302309752 0.1258841779285271 0  0.309375 0.04312325590431198 0  1.621993280276081 0.2841214267927899 0  1.550118654119087 0.2461998729100966 0  1.327182649291491 0.1216967252533594 0  1.051977450479407 0.1221382572915816 0  1.753125 0.04556020050186112 0  1.271875 0.04556020050186116 0  0.9816084133102366 0.05126138213476004 0  1.039051841454368 0.0572224914831029 0  0.9719230514536006 0.3480477870845102 0  1.94956388244759 0.1180512551534177 0  1.949997712993411 0.04965831614304109 0  1.771961817615021 0.1530278789497521 0  1.909246823951428 0.2812757146784527 0  0.2459536687882397 0.04668633953831142 0  1.948575539857022 0.2445328248721197 0  1.697271520964565 0.1233917627620729 0  0.7964897648514618 0.1211426571931604 0  1.065625 0.3689344961371042 0  1.085849084308977 0.3170853572226867 0  0.4702981435440001 0.260434880697798 0  1.577403511714593 0.05463601888079143 0  0.05622663515370135 0.05493816910862376 0  0.3267207591099919 0.3566194660323104 0  0.9003051618565143 0.3564049499960621 0  1.751571320346033 0.3651102912045228 0  0.1583785085108421 0.2994699345738728 0  0.1455283439499995 0.3542795598723423 0  2.2 0.35875 0  0.2347662494194072 0.298325008655211 0  0.1527284455616188 0.1065771775690181 0  0.1382139529076665 0.05427454456341477 0  0.8749341636311069 0.05110114999892954 0  0.643661668713109 0.05693499781019222 0  1.466879772203159 0.3611261772912453 0  1.990280163552011 0.3564754268533217 0  1.17471064520912 0.2990917256188288 0  0.5202693090594349 0.206382495511728 0  0 0.25625 0  2.2 0.25625 0  2.2 0.05125 0  0 0.15375 0  1.853978576207987 0.35875 0  0.9787513713939683 0.1487523696999336 0  0.240625 0.3722153812029779 0  1.515638456102889 0.2882700110184686 0  0.09048297387599738 0.3637717362208066 0  2.150453692751374 0.2387066338105111 0  1.323782677156475 0.04897634338873398 0  0.8074131292871642 0.3624701995505916 0  1.409375 0.03715320121951221 0  1.406484531114799 0.1087852750766809 0  1.134375 0.03715320121951218 0  1.627401732573545 0.04552157221025036 0  0.1170173172005315 0.1427610859166811 0  2.045405893604797 0.1105340662939892 0  1.255408269734577 0.1577307500159216 0  2.028125 0.03707597992059326 0  0.4743610090857199 0.1421513964721819 0  0.9354010469015898 0.250631300585664 0  0.04420832937638274 0.128125 0  0.8922386349349938 0.0992956419364831 0  0.1197849154434487 0.2663398672460083 0  1.248258025468107 0.2565907092181813 0  0.3746885856929528 0.370723531618974 0  1.203125 0.0366132337404304 0  0.5724622277005015 0.2751253816079333 0  0.3365425205162783 0.08395777655057959 0  2.072662025974815 0.2975086504196739 0  0.4581080832182547 0.3648371739579888 0  0.3874522734668214 0.2295447548840689 0  0.7827853612484443 0.04106550386289586 0  1.887722846421017 0.1760882698830035 0  1.472640588990488 0.1118278026240017 0  1.865937103925594 0.2604137786483804 0  1.463913572748262 0.2030442564990043 0  1.376426316059077 0.3186741374914345 0  0.6641993820150034 0.3141688596240831 0  0.2943117490824315 0.2130987422685822 0  0.3478153998082709 0.1666571081082676 0  0.3427990510599805 0.2575950027870776 0  0.7997118993855807 0.2216171933356366 0  
[...]
<PointData  Scalars="f_10-1"> 
<DataArray  type="Float64"  Name="f_10-1"  format="ascii">9.6959730162986843e-04  3.8742575764933216e-04  1.2825722413003302e-03  2.8452353743810138e-03  2.4150428259211137e-03  1.7915428442949266e-03  1.0589332681630839e-03  6.3420597065554996e-04  5.8506580078454497e-04  6.3078443643507591e-04  7.2925493012393190e-04  1.0641635856335891e-03  1.7754029594155925e-03  2.3870044288327886e-03  7.3895029834670958e-04  3.8014301050212696e-03  6.1668882756422147e-04  4.2611874145519121e-04  4.4333434329732867e-03  4.1052729461223591e-04  4.3586212517763108e-03  3.2481372730000652e-03  1.0669191155858579e-03  4.1292245459102900e-03  5.5419404830782111e-04  9.1615623928157958e-04  3.5060563035134180e-03  1.1904133415013489e-03  3.0268806341097083e-03  2.1751696246134506e-03  2.1351906647912545e-03  2.2431069278672413e-03  2.2367099475991978e-03  2.2101549414794571e-03  2.0734385588403645e-03  2.2513887626507724e-03  2.1772550878855807e-03  1.2437299896788008e-03  2.9263824446101455e-03  2.6483297754065728e-03  4.1420418512765940e-04  4.5196070138358935e-03  3.1336195638740471e-03  1.6234093453020367e-03  9.9604563494144044e-04  1.1312492688002468e-03  3.3723951164172845e-03  3.1134517340445271e-03  3.9627548275115426e-03  6.4453952502860844e-04  4.2924497331757634e-03  4.7500850313336891e-04  3.9586650011614086e-04  2.7129972125595164e-03  8.3197742781414166e-04  1.5465366729938547e-03  3.6477900686926485e-03  1.6743850614330527e-03  3.1064008512972511e-03  2.7641354086364255e-03  1.2219756748414600e-03  2.9571826588788395e-03  4.2818876782099074e-03  1.5743332446414061e-03  1.6065454518496476e-03  2.8368287798784266e-03  3.9459598445441973e-03  7.3849125757562703e-04  5.6989337531801855e-04  8.0822002121246387e-04  4.4993417413703761e-04  2.4205179098709000e-03  5.3591453066244321e-04  2.2511250061154793e-03  4.2670308452578392e-03  3.7756662763441529e-03  1.3735151165367519e-03  3.1027700079124111e-03  2.9673252977523738e-03  7.2205208865813925e-04  3.6297219085865717e-03  3.5719708123752134e-03  2.7990104632866601e-03  1.3865207767360698e-03  1.2043457695544357e-03  1.4975826900829093e-03  3.2872619893124363e-03  1.3197788316910678e-03  1.0517681639968610e-03  1.1152691076962852e-03  9.6502936254187039e-04  2.2546179955077583e-03  4.8836216430627015e-03  2.8091295474213470e-03  2.4015316208176882e-03  1.6999540371160848e-03  2.6773319564395459e-03  5.4043535834349459e-03  2.4042381777925350e-03  4.8784550831818912e-04  4.4659512911794332e-04  1.2660754636824516e-03  2.8125816100905286e-03  3.5748952419354472e-03  5.9817823547589106e-04  2.2766304927261945e-03  4.0508821147789841e-04  1.2815026516250850e-03  3.1892735031476063e-03  3.7236267145364611e-03  2.8313758598364591e-03  4.1350057219324084e-04  3.7783439780678168e-03  4.6980305794163622e-04  1.3118533769399887e-03  5.5199010029135056e-04  3.3811609687704725e-03  7.4386202581039850e-04  1.1920913350966528e-03  1.6954095395974569e-03  1.0780955610774428e-03  8.7240109350380200e-04  3.8868572432031443e-03  2.2410434651863541e-03  1.8647873460682157e-03  2.2189907105028567e-03  9.2017184684831761e-04  6.9367759080571812e-04  1.8379730576140972e-03  1.2215858062373265e-03  4.7879508368584194e-03  1.4582043520537970e-03  1.7754559992325513e-03  4.2137436310884192e-03  1.0334125705535407e-03  2.8495696488341094e-03  1.0500958829125022e-03  4.4664517848557964e-03  3.1277096353180094e-03  1.3397758215372448e-03  8.9453896041265192e-04  7.4913763942154792e-04  4.1804315718464999e-03  5.9365917214735026e-04  3.3092099611799781e-03  3.1384928488381093e-03  1.6723280802406453e-03  1.1616722004208768e-03  9.5510437473971021e-04  3.4373722791900098e-03  3.0779478571940680e-03  2.8791337184800431e-03  5.1133572262917852e-04  4.0478814531342043e-03  4.1635879298285264e-04  4.5035010785017355e-03  4.4873785706838944e-03  3.8494370269617651e-03  3.8921891370116544e-04  7.8756460999553361e-04  4.4608289543761803e-04  4.3662586999540622e-03  3.8832108601751614e-03  1.0992775902679784e-03  1.2162225481162881e-03  2.9748615799871990e-03  3.4393295746024590e-03  3.6437667656423691e-03  3.1088534027071029e-03  1.3698507427251656e-03  2.2222550230392543e-03  2.5676041411709372e-03  6.9856858886573449e-04  3.3838965047412834e-03  1.5119237967159069e-03  4.3878109535291893e-04  7.4884023175715868e-04  1.9886173401301799e-03  2.0517272081631943e-03  1.7233573219157484e-03  1.8817412635664080e-03  1.2608353568297993e-03  1.3341664576218882e-03  3.5133940316214637e-03  1.2975309106155056e-03  3.7923613698136543e-03  5.8302207509844796e-04  3.2618369617532232e-03  2.4195006796102433e-03  2.2716623657071215e-03  2.5114047279676975e-03  3.2516412525015574e-03  1.8013030665890311e-03  2.7698894181191164e-03  3.0404068451325384e-03  2.5495770249993202e-03  2.9707315472320040e-03  3.3714347851983412e-03  4.0361273283749189e-04  4.2592206878929268e-03  1.4749942693679866e-03  6.4068990129266339e-04  3.6145502595414576e-03  1.9153216833940145e-03  2.2675425592556392e-03  3.1359664248969878e-03  2.6243727768580981e-03  2.9514496026512445e-03  4.3097181989165245e-04  4.4516858674641764e-04  4.8181673967260738e-04  2.0858794221383634e-03  2.5950620591076419e-03  3.1032392601688147e-03  1.7583197014325400e-03  4.4313255201316555e-03  3.2430573904397219e-03  4.1924878881170269e-03  1.1141445284770595e-03  4.3613545312283682e-03  1.1710438920316361e-03  1.5961232776836301e-03  3.1023180677938770e-03  7.4647005864148690e-04  1.0927063884992414e-03  1.0429539437906156e-03  1.3676323254324240e-03  1.6014492951967857e-03  4.2887084565917092e-04  2.8305117395848868e-03  2.5546709796501689e-03  1.3730028288777096e-03  1.2538164617513186e-03  1.1594078067217197e-03  9.0817834953580399e-04  7.3637350082275687e-04  8.0093016525553695e-04  3.8190258104762566e-03  1.5251684915887974e-03  1.2488005219816749e-03  1.7235184309748132e-03  2.6569954382932772e-03  4.3224389684043586e-04  2.3967791350630505e-03  1.5004043391299803e-03  1.0798541726267695e-03  3.7972322396192235e-03  3.4902931614752379e-03  3.5203901067184878e-03  1.1062189692447931e-03  4.0729844506086029e-04  4.6096235959776364e-03  3.9470059903878845e-03  3.1303472279429218e-03  5.6873702188641982e-03  4.7531821371519086e-03  2.8065588054567814e-03  4.0835150871925191e-03  4.9149046764483109e-04  4.2206787544825050e-04  6.6047468384513534e-04  5.2386601190880391e-04  3.3626734436219908e-03  2.9330951695052143e-03  3.2607697422196644e-03  2.2514567228519309e-03  7.3020413531623297e-04  2.3880383645419703e-03  1.3319086429558768e-03  5.2173885281206879e-04  3.0353759440062914e-03  1.5002551477050299e-03  4.5489629048316663e-03  2.9249758740598178e-03  2.0152886190710597e-03  2.2950194401148280e-03  9.4932186316334921e-04  4.0841397182063985e-03  9.7045802377347657e-04  1.3046063888567988e-03  7.9812063319812700e-04  1.1038314299495339e-03  5.2544141860667111e-04  1.5047068100871343e-03  1.6864017563498379e-03  1.2541999736604629e-03  9.0887047289148377e-04  2.8867197941344716e-03  4.8461942258092120e-04  9.5084464054368716e-04  3.7267820119225785e-03  2.7901555003681678e-03  4.5451040323668309e-03  8.4395202238651248e-04  3.6048522817920961e-03  4.7063387946645840e-04  2.6633969800128310e-03  4.4816328425881877e-03  2.9234012270117657e-03  5.6893445961496631e-04  1.9012380143775839e-03  1.3517732798791629e-03  2.5401686488031022e-03  2.1621538751227820e-03  3.2437619791790225e-03  3.9501074504840871e-03  2.2941276880376160e-03  9.5225192718247803e-04  3.5523076187219537e-03  2.5153672287277005e-03  2.7657782524244455e-03  2.4856222567280727e-03  1.2808510456462393e-03  1.6253262919052709e-03  1.0737915026579111e-03  2.5674262305299712e-03  3.2086143857022716e-03  2.8362820552605824e-03  2.0235979494592263e-03  6.2103797916813130e-04  2.9507176487996883e-03  1.6063706262654286e-03  2.3217553331623618e-03  2.9398366140657431e-03  2.8399097035425700e-03  6.2467273181557781e-04  2.4842129606123197e-03  2.7554395944062726e-03  2.9022865679494544e-03  2.8892086918027968e-03  3.9998717237960856e-04  5.3881038562837323e-04  3.2781877634884080e-03  1.4598887643587199e-03  2.7191009689379775e-03  4.0074650230920221e-04  2.6255837143756081e-03  1.9350122055970171e-03  9.7551954163876140e-04  2.0124338719741566e-03  3.3397125973941956e-03  4.0894827164244573e-03  1.0830829137769055e-03  1.1365555053997347e-03  3.9216293418830308e-03  3.8581815229732606e-03  1.2937393041413526e-03  2.8502821415622190e-03  1.0413895209771694e-03  7.2450581483273835e-04  4.1534773053203775e-03  1.8920749434922829e-03  1.6136746164700845e-03  2.4839015562011682e-03  1.1749686807900699e-03  1.3802577074020568e-03  1.0143119437786895e-03  2.9880938306951171e-03  2.5228525484320150e-03  5.3112185546878670e-04  3.1059960142076621e-03  7.5640326990040487e-04  2.9911350319431259e-03  3.2066625682755498e-03  9.1723179491934076e-04  4.7029145103097869e-04  3.3874491476586989e-03  1.7446526072861751e-03  4.0037061205613006e-03  2.1716888328995173e-03  3.6094326968100698e-03  1.8525124682813616e-03  1.0080943964236322e-03  4.1777982047927703e-04  1.8723954072831720e-03  1.3605690390077433e-03  2.6404074803187375e-03  3.3124920664879980e-03  4.2583972464709649e-03  4.2208715537532214e-03  2.1923855234621354e-03  1.0601871517164647e-03  2.7114791504709527e-03  2.6185099438725342e-03  1.7735662268610675e-03  5.8510774185746984e-04  1.8239033339900695e-03  3.2406866391693208e-03  1.2526705433140389e-03  3.4982905914945502e-03  3.0520410345906317e-03  1.1977475175030707e-03  1.1767007554903586e-03  1.3517819272166739e-03  1.2916543867441466e-03  1.2940711922142347e-03  1.1030115308057976e-03  1.3901740818251826e-03  3.8786777636939593e-04  3.7235446213910871e-03  4.2155058980796840e-03  9.6009273633326027e-04  2.9275926942943092e-03  1.6199117541212333e-03  1.5539646187618915e-03  3.5445286893726331e-03  2.1885547302375342e-03  4.4687827349791252e-04  4.6842229868019588e-03  1.2737895844844823e-03  7.8229159539277724e-04  3.9514655404872352e-03  4.1422801746153091e-03  1.8852222303120903e-03  5.4161681941907391e-04  2.9155920771116138e-03  8.6780384630362668e-04  1.3501114686485943e-03  2.8416227819183463e-03  4.5636786571577612e-03  4.2686593768318116e-03  2.6099616562719205e-03  4.4552867638198348e-03  1.7020624024823591e-03  1.6041449474394674e-03  7.4343551877636385e-04  1.6082038514688970e-03  5.5111972514951290e-04  3.8900968151426886e-03  2.7859735532376525e-03  4.0437801364274313e-03  7.4442825999658264e-04  1.0295004004750193e-03  2.1143233238176602e-03  2.1705630245645465e-03  1.5939618408371595e-03  1.4831325170973672e-03  1.3115345932811695e-03  9.3984012655318454e-04  1.1843522787632651e-03  1.7607292184939755e-03  1.6989454151495366e-03  1.7162409174463710e-03  4.9763007340247658e-04  4.5355523473300432e-03  1.1660081292687366e-03  1.3444525409183655e-03  4.4236221423622941e-04  5.0622066925057668e-03  3.0503946568518261e-03  3.0235836346220132e-03  3.7520591243539541e-03  5.3508765287720245e-04  3.0159818654581063e-03  4.2341017592077891e-04  2.8942077338878431e-03  3.2488136736419631e-03  1.9401943973334477e-03  3.3392223253440306e-03  1.0380753220333551e-03  1.1464724759930082e-03  4.0193502181703833e-03  2.3231548097775835e-03  2.2776618143403910e-03  1.1117711003052046e-03  1.2272681398693452e-03  2.6146431592414185e-03  2.2146514894621936e-03  2.0732738948867654e-03  2.9975469436375455e-03  1.1333072628831764e-03  2.2491018178288388e-03  1.3786649870017587e-03  1.9332230626984141e-03  4.8973285481247655e-04  1.0928550460714487e-03  3.6972531209303857e-03  6.6527881000299973e-04  6.3655617133889352e-04  5.7544142373411409e-04  5.9397488611072531e-04  1.4528744445749787e-03  1.4895201167220938e-03  7.0429069240888413e-04  2.1319666060259186e-03  2.8830849177277637e-03  3.3933379156256592e-03  2.3541631504671078e-03  2.3943140922836146e-03  1.5740438662912508e-03  1.8726270806504357e-03  2.9760686614543163e-03  4.3243281181348212e-04  4.5185201064118401e-03  9.7340604493936984e-04  1.3692122097326961e-03  3.4461499312148820e-03  1.5079017234318553e-03  3.7047218537068455e-03  3.7618586410435493e-03  3.5425967790346925e-03  3.5423339984311029e-03  3.4725038568856792e-03  3.4053655986032343e-03  1.9834079670473749e-03  1.7210393053586676e-03  3.6865817868354011e-03  4.1709730133271446e-03  4.3739634817610206e-03  1.9096932252615530e-03  7.7974098447145175e-04  4.2439886118547930e-04  4.1357769323230109e-04  4.2835317833015418e-03  3.9040245057841740e-03  4.1805461326848755e-03  4.2261095573289742e-03  1.8239704549013883e-03  8.6186461683257173e-04  2.7142808086257622e-03  5.2614270040494428e-04  8.8278030244115285e-04  7.5173996109863695e-04  3.2075686591669537e-03  3.2194327941138211e-03  1.9222215189361612e-03  1.9380138045673252e-03  2.6096579014016847e-03  3.6127101557702785e-03  3.7633943379889977e-03  8.1544727404057177e-04  4.2702221618993547e-04  8.9520556724518696e-04  7.1763319324356174e-04  1.2765555777637016e-03  1.2540520139979249e-03  7.6388891710898945e-04  9.3741354821042010e-04  3.4045051891159707e-03  3.1613256492223521e-03  3.8417645538876980e-03  1.1172164086608401e-03  4.2531933169579787e-03  3.4721096874925027e-03  4.9291351764520523e-04  2.8565420478489818e-03  6.2308298283276782e-04  4.5218252186505839e-03  4.1432338641038077e-04  4.5079494913013276e-03  3.9194237549001099e-04  4.1723422596946285e-03  4.0752545785992928e-04  1.9275813851193620e-03  4.5877765863135074e-04  5.3192194415156377e-04  4.1237396534130939e-04  4.4018015772139766e-03  4.4627332595286052e-03  4.3425994615638370e-04  4.1939135227393514e-04  4.3323891132094087e-03  6.7128611596293662e-04  8.0837580681106572e-04  1.0499095668011339e-03  1.2029147878437501e-03  8.5230882512291159e-04  1.2300654364317807e-03  3.0014151063733805e-03  3.1731159688006779e-03  1.5192096488338312e-03  7.0647988564583606e-04  1.4177329933157351e-03  1.6798156039294597e-03  4.8562498181571660e-04  2.6121523287396631e-03  2.9188908625844678e-03  3.5176183022888807e-03  3.0923227957697771e-03  3.1340720789725892e-03  1.1982221561638901e-03  2.8487732203200727e-03  3.2929660917553377e-03  3.4422273408719136e-03  2.5768397003688381e-03  2.8473855138769501e-03  2.1667367193748499e-03  4.8043350333688801e-04  2.7789628633885684e-03  1.4494789765092445e-03  2.5129563530059927e-03  2.2161492080052460e-03  2.8099703040720650e-03  3.3765414851924472e-03  3.7329703662044283e-03  3.2005950206595280e-03  3.9234926667088502e-03  6.7063173167465965e-04  4.2009251315043173e-03  1.0579514994526488e-03  4.3394495095894856e-03  1.2614289679153611e-03  1.4432870639162420e-03  9.9330073010669442e-04  4.2752493534598595e-03  1.9286417411517954e-03  1.8705274559703204e-03  3.4610476772922588e-03  2.0865915289341305e-03  1.7549528039791696e-03  2.7375270843952538e-03  2.7937170353723212e-03  4.4220862591142309e-04  3.6740897261223625e-03  3.4732662559031490e-03  2.7338032246088180e-03  2.6899835146779716e-03  3.1092981961171520e-03  2.2955810228951208e-03  2.9653019776134503e-03  2.9218354022510357e-03  2.3570288725405565e-03  1.3501154938639242e-03  2.4577888850220394e-03  5.2361397269712481e-04  1.7855492411478387e-03  1.5249309484939889e-03  9.9269496467708118e-04  3.7909364904678850e-03  1.2488963408137661e-03  1.2175592974547507e-03  5.5380411792013934e-04  3.0326389926371008e-03  3.0187360815794092e-03  3.3147543598875361e-03  2.5896116098279784e-03  5.6350745117919728e-04  4.0674690259948619e-04  1.0826192999289863e-03  3.2835947883848495e-03  1.3076048938253822e-03  1.9358758995442380e-03  4.4239845569447113e-04  1.1706024964525750e-03  1.1951584340395632e-03  4.9874687083501824e-04  2.4843208527272204e-03  3.0590034582819456e-03  3.8502689400924540e-03  2.9148980478845140e-03  1.8630810195105281e-03  1.2623292944529017e-03  1.0367487912539667e-03  2.3089265821413566e-03  9.2216991775796741e-04  3.4112408550866185e-03  1.1911587176230481e-03  2.6178891014742231e-03  4.6492789262676619e-04  2.4630095746642454e-03  2.9979909819130360e-03  2.5621154607007300e-03  1.9467900349343893e-03  1.1164745521524111e-03  2.6960672389379106e-03  2.7109921975467426e-03  2.0689233936610272e-03  1.0041241477280528e-03  2.9843522832463483e-03  3.9160786724694779e-04  3.9419301643954909e-04  1.6047631359691241e-03  1.3770508071787545e-03  3.3573986274150151e-03  3.7362050197438826e-03  4.3945186380380339e-03  3.2291960172082068e-03  4.1260759992853844e-04  4.5691034393460263e-03  4.0171371478759394e-03  1.5367894041773474e-03  3.2824643196706213e-03  3.5228118251805140e-03  4.6340386392116741e-03  1.0228817991488966e-03  3.0880920209952643e-03  4.0157574142902254e-03  6.7405229288500614e-04  3.8832261245893575e-03  4.1967934113307286e-04  1.3451961555260949e-03  3.7475954827528970e-03  1.1898318579248643e-03  2.6026345772330217e-03  1.5055741588432944e-03  2.7109028186803443e-03  2.2343196212029704e-03  3.1602711512022695e-03  5.5961314791211467e-04  1.8909446450748615e-03  2.1279366489888683e-03  1.6157477260035592e-03  2.7041256386611261e-03  1.9388425469311339e-03  1.3526973594673037e-03  2.8750635565921783e-03  2.5109504723272013e-03  8.4203426750966922e-04  4.6394046649258667e-03  6.5273052667348709e-03  2.4800277025443076e-03  3.4302334580935535e-03  2.3326018520333090e-03  2.4433672008859443e-03  2.8903802623392334e-03  2.4015468883257806e-03  9.7324714107825162e-04  2.9488726267761860e-03  5.5955531237340838e-04  6.2264377055077096e-04  3.7490060964451800e-03  2.1945540664023645e-03  2.2373100342323714e-03  2.9098685771648839e-03  2.7007899595191021e-03  4.0099811384533167e-03  8.0211015272799006e-04  2.1132612292388987e-03  3.2683247527586514e-03  3.1745052166108922e-03  3.6099987812844582e-03  4.0421694163707269e-03  1.6180544642593864e-03  5.9658119616178710e-03  3.1054804625302822e-03  2.8497197007492691e-03  4.0470808697644304e-03  3.5898237020190716e-03  4.2245978730768288e-03  1.2022720707212809e-03  3.1327807431656002e-03  3.5347581097032493e-03  5.5535456199079774e-04  1.0993912349383781e-03  2.9597741295640358e-03  7.1832477845255264e-04  2.6748094266585047e-03  4.8258850896552060e-04  1.6343704289051471e-03  2.9843916220472885e-03  4.6610155861146418e-04  1.2511244132921823e-03  9.3997195852902054e-04  4.6387701922363198e-04  2.9815118459867312e-03  3.1443100797529412e-03  2.7237571458576574e-03  2.4491816401878272e-03  2.6419005094262898e-03  4.4451095741170543e-03  2.3324710825179157e-03  2.8399763912141263e-03  1.5705963186144823e-03  8.9043933335018581e-04  1.1168464539490074e-03  1.1362225967192240e-03  1.4097331151754419e-03  2.0979440733303774e-03  1.4127361236326553e-03  1.1457552513988753e-03  4.6044861832882057e-04  2.0461746406744015e-03  3.5227720402006050e-03  3.4782664796267283e-03  3.6669197053476352e-03  3.4688854749578145e-03  4.4746292104258598e-03  4.4190940012189444e-03  1.0188913854291366e-03  4.1647044464053045e-04  4.3944672726694368e-04  3.9459966062558091e-04  3.3476230433891201e-03  4.1805210361198469e-04  8.8881238180349984e-04  4.5139007424933259e-03  1.4683930569003409e-03  1.9123581029499293e-03  5.8348739124844059e-04  6.6585838470468181e-04  3.1274869019875823e-03  3.2164360849648477e-03  3.1642058060632303e-03  1.4868956253743658e-03  9.2019738322015883e-04  3.2169032981223858e-03  8.4603182680383397e-04  2.9375216410614784e-03  4.8093762295794057e-04  4.4483081483808623e-04  1.6875066087180877e-03  2.2566707060445762e-03  3.9793772483382962e-03  2.3905198602319142e-03  2.7593968401110882e-03  2.4353299534791558e-03  3.2862674653292398e-03  9.8646534193173939e-04  1.7998432292388295e-03  2.0766085087007354e-03  4.4168649013670734e-03  3.0963534955338952e-03  1.2579864148546899e-03  1.2045281428441307e-03  4.4741566628126016e-03  9.4071673472749572e-04  3.1053401808072965e-03  1.9253924576318753e-03  1.5465659645031390e-03  3.6909464204868637e-03  3.0527989789782333e-03  1.5476171647399888e-03  4.2757373288313048e-04  1.7145066703972477e-03  4.1672178369736828e-04  3.3040272180393476e-03  2.1680824671889147e-03  3.8743203696984981e-03  2.3640645204197649e-03  1.2300746873326