<?xml version="1.0"?>
<VTKFile type="UnstructuredGrid"  version="0.1"  >
<UnstructuredGrid>
<Piece  NumberOfPoints="2446" NumberOfCells="4585">
<Points>
<DataArray  type="Float64"  NumberOfComponents="3"  format="ascii">0 0.41 0  0 0 0  2.2 0 0  2.2 0.41 0  0.2404508497187474 0.2293892626146237 0  0.25 0.2 0  0.2404508497187474 0.1706107373853764 0  0.2154508497187474 0.1524471741852423 0  0.1845491502812526 0.1524471741852423 0  0.1595491502812526 0.1706107373853764 0  0.15 0.2 0  0.1595491502812526 0.2293892626146237 0  0.1845491502812527 0.2475528258147577 0  0.2154508497187474 0.2475528258147577 0  1.1 0 0  1.1 0.41 0  0 0.205 0  0.55 0 0  0.55 0.41 0  0.275 0 0  0.275 0.41 0  1.65 0.41 0  1.65 0 0  0.8250000000000001 0.41 0  0.8250000000000001 0 0  1.375 0 0  1.375 0.41 0  1.925 0 0  1.925 0.41 0  1.5125 0.205 0  1.7875 0.205 0  0.6875 0.205 0  0.9625000000000001 0.205 0  1.2375 0.205 0  2.2 0.205 0  0.4687002074688797 0.2068568464730291 0  1.99375 0.2152743902439024 0  2.0625 0 0  2.0625 0.41 0  2.2 0.3075 0  0.4125 0 0  0.4125 0.41 0  1.7875 0.41 0  1.375 0.1486128048780488 0  1.5125 0 0  1.7875 0 0  1.5125 0.41 0  0.8250000000000001 0.2613871951219511 0  0.9625000000000001 0.41 0  0.9625000000000001 0 0  0.6875 0.41 0  0.6875 0 0  0.1375 0 0  0.1375 0.41 0  1.2375 0 0  1.1 0.1486128048780487 0  1.2375 0.41 0  1.65 0.1486128048780487 0  1.126715909090909 0.2793064024390244 0  1.676715909090909 0.2793064024390244 0  0.8517159090909092 0.1306935975609756 0  1.348284090909091 0.2793064024390244 0  0.34375 0.3032389320646208 0  1.894702181800738 0.1282910975492754 0  2.092797818199262 0.1282910975492754 0  1.85625 0.3075 0  0.61875 0.3075 0  0.61875 0.1025 0  0.3648540804333487 0.1240075933101478 0  0 0.3075 0  0 0.1025 0  2.099172119769978 0.25625 0  0.48125 0.09238439620688085 0  0.5781001037344399 0.2059284232365146 0  0.48125 0.3196743479159776 0  0.7265881057911006 0.3055240343720796 0  1.99375 0.08395950269330846 0  1.459960956013612 0.3075 0  1.569025960719943 0.2986889805672169 0  0.75625 0.08213100772579164 0  1.03125 0.3278689922742084 0  0.923871252904788 0.3078247185783941 0  1.959375 0.3126371951219512 0  1.749222215368287 0.1025 0  1.275777784631713 0.1025 0  2.2 0.1025 0  1.225938124459196 0.3075 0  1.550777784631713 0.1025 0  1.000777784631713 0.1025 0  1.44375 0.07430640243902442 0  1.16875 0.07430640243902437 0  1.899250267340833 0.2229966846119207 0  0.1020898364287272 0.3140258291809757 0  1.766482954545455 0.2934032012195123 0  0.3405058858996321 0.2119987970531874 0  0.7710785630958338 0.1710968191298857 0  1.046078563095834 0.2389031808701144 0  0.2 0.3400647632937836 0  1.421109702350723 0.2261157654379721 0  0.2800464974185557 0.08982544815605742 0  0.098916018031319 0.09171660955420841 0  2.13125 0 0  2.118919042110979 0.3422084711244843 0  1.30625 0.41 0  0.89375 0 0  1.597888256393107 0.2173787389261347 0  0.20625 0 0  1.829299675393195 0.07400700849299596 0  1.71875 0.41 0  1.16875 0.41 0  2.038220665644273 0.332420740103091 0  0.34375 0 0  0.417496017710808 0.2696595573092803 0  0.2 0.07687845740457822 0  0.9295982307099278 0.1343158415898188 0  0.07390688010811153 0.1697064032433452 0  0.5238366813727013 0.2578302467013575 0  0.05452951551825875 0.25625 0  0.5229630068078351 0.1548816096928243 0  1.452769549894695 0.1548122580621249 0  1.369219062229598 0.07430640243902442 0  1.30625 0 0  0.8504409521244898 0.3356935975609756 0  0.8821881244591965 0.205 0  1.720943423819132 0.1714577452753128 0  1.157188124459196 0.205 0  1.094219062229598 0.07430640243902437 0  1.03125 0 0  1.304056576180868 0.1714577452753128 0  1.67579304192913 0.07430640243902437 0  0.2751941921308361 0.3346083473122598 0  1.209670467133757 0.1362100266964769 0  1.025335513626278 0.1700681449722324 0  0.7562500000000001 0.41 0  1.58125 0 0  0.7567170593862014 0.2409196493502535 0  0.6926714215682891 0.1272249611432207 0  0.4139715849905988 0.3397932387114203 0  0.9840787304190477 0.2717749043358119 0  0.06875000000000001 0.41 0  0 0.35875 0  0.9281250000000001 0.06276726142697993 0  0.5507396469029935 0.3219409231578227 0  0.5504468037989405 0.09136885600634273 0  1.58125 0.41 0  1.631724228912893 0.3381867502687533 0  1.825608881788174 0.14499488549201 0  1.85625 0 0  1.44375 0 0  1.44375 0.41 0  1.85625 0.41 0  2.13125 0.41 0  0.7562500000000001 0 0  0.89375 0.41 0  0.4812500000000001 0 0  0.34375 0.41 0  0.4812500000000001 0.41 0  0.20625 0.41 0  0.06875000000000001 0 0  1.16875 0 0  0.61875 0 0  0.61875 0.41 0  1.03125 0.41 0  1.71875 0 0  1.99375 0 0  1.99375 0.41 0  1.340625 0.3489494290853124 0  1.134375 0.3489494290853123 0  1.700180620188976 0.3438659752031281 0  2.135782184673599 0.07126652247502523 0  1.668441847249787 0.2129203728327609 0  1.295782514339747 0.2378437748815763 0  0.8233075729931248 0.06842334294821524 0  1.409375 0.3520314716057996 0  0.403505597322782 0.182067236678212 0  0.378125 0.05794951541303489 0  0.3043468223249023 0.1518321115979534 0  2.129248544730567 0.1906135162504124 0  2.060771381434487 0.1989445750470348 0  2.013252586573865 0.1496169464686054 0  1.942766402200229 0.1734448904596831 0  1.895522487186454 0.06076163953489683 0  2.069553871656643 0.06605731020975725 0  1.274680914880868 0.3520219391081363 0  1.614713220494657 0.09473434380863296 0  0.7899021319497519 0.3149123934144827 0  0.69518737419149 0.0634051089053758 0  0.2971740475496061 0.2592172353407536 0  1.72990325744076 0.2380068107952482 0  1.356580098625191 0.2120393231351682 0  2.034370752044885 0.2668681600792073 0  1.51768709249349 0.3426260931494756 0  1.561883724969884 0.1650446847858835 0  1.197344062229598 0.2523725417393646 0  1.804085235518364 0.3468178408964637 0  1.817887819205233 0.2589243285818559 0  1.905897727272727 0.3485060975609756 0  0.6719798073392919 0.2688965171178177 0  0 0.05125 0  0.653125 0.35875 0  0.6396896119294488 0.1627615407790282 0  0.4274150154087412 0.1242548552168279 0  1.192836486056382 0.3562350748565544 0  0.8279124365364005 0.183856489168822 0  1.097485222388854 0.2083571153401724 0  1.28257088594801 0.2944411014911587 0  1.474860187679412 0.2504218616229368 0  1.406767003493824 0.2829282258560709 0  0.446875 0.04619219810344041 0  0.515625 0.04585361801037557 0  0.592043440706648 0.05125 0  1.845656689180403 0.1998310418452388 0  2.144958525570388 0.2909790873294231 0  0.6171090763650112 0.2492366900333857 0  2.2 0.15375 0  0.5145586920831158 0.3648371739579888 0  1.57794966442982 0.3540357145964566 0  0.721875 0.3633107922168974 0  0.0496154796471391 0.333125 0  0.5843750000000001 0.3662560860076676 0  0.5810878747760798 0.1474002776121195 0  1.508991196088596 0.1421783375065625 0  0.8840670607017558 0.2640994375393898 0  0.09776612425612034 0.2204896805326566 0  1.50436820029908 0.06143401634903343 0  1.223857000523521 0.0823554862453532 0  1.153316824384777 0.1289850171317837 0  2.148922302309752 0.1258841779285271 0  0.309375 0.04312325590431198 0  1.621993280276081 0.2841214267927899 0  1.550118654119087 0.2461998729100966 0  1.327182649291491 0.1216967252533594 0  1.051977450479407 0.1221382572915816 0  1.753125 0.04556020050186112 0  1.271875 0.04556020050186116 0  0.9816084133102366 0.05126138213476004 0  1.039051841454368 0.0572224914831029 0  0.9719230514536006 0.3480477870845102 0  1.94956388244759 0.1180512551534177 0  1.949997712993411 0.04965831614304109 0  1.771961817615021 0.1530278789497521 0  1.909246823951428 0.2812757146784527 0  0.2459536687882397 0.04668633953831142 0  1.948575539857022 0.2445328248721197 0  1.697271520964565 0.1233917627620729 0  0.7964897648514618 0.1211426571931604 0  1.065625 0.3689344961371042 0  1.085849084308977 0.3170853572226867 0  0.4702981435440001 0.260434880697798 0  1.577403511714593 0.05463601888079143 0  0.05622663515370135 0.05493816910862376 0  0.3267207591099919 0.3566194660323104 0  0.9003051618565143 0.3564049499960621 0  1.751571320346033 0.3651102912045228 0  0.1583785085108421 0.2994699345738728 0  0.1455283439499995 0.3542795598723423 0  2.2 0.35875 0  0.2347662494194072 0.298325008655211 0  0.1527284455616188 0.1065771775690181 0  0.1382139529076665 0.05427454456341477 0  0.8749341636311069 0.05110114999892954 0  0.643661668713109 0.05693499781019222 0  1.466879772203159 0.3611261772912453 0  1.990280163552011 0.3564754268533217 0  1.17471064520912 0.2990917256188288 0  0.5202693090594349 0.206382495511728 0  0 0.25625 0  2.2 0.25625 0  2.2 0.05125 0  0 0.15375 0  1.853978576207987 0.35875 0  0.9787513713939683 0.1487523696999336 0  0.240625 0.3722153812029779 0  1.515638456102889 0.2882700110184686 0  0.09048297387599738 0.3637717362208066 0  2.150453692751374 0.2387066338105111 0  1.323782677156475 0.04897634338873398 0  0.8074131292871642 0.3624701995505916 0  1.409375 0.03715320121951221 0  1.406484531114799 0.1087852750766809 0  1.134375 0.03715320121951218 0  1.627401732573545 0.04552157221025036 0  0.1170173172005315 0.1427610859166811 0  2.045405893604797 0.1105340662939892 0  1.255408269734577 0.1577307500159216 0  2.028125 0.03707597992059326 0  0.4743610090857199 0.1421513964721819 0  0.9354010469015898 0.250631300585664 0  0.04420832937638274 0.128125 0  0.8922386349349938 0.0992956419364831 0  0.1197849154434487 0.2663398672460083 0  1.248258025468107 0.2565907092181813 0  0.3746885856929528 0.370723531618974 0  1.203125 0.0366132337404304 0  0.5724622277005015 0.2751253816079333 0  0.3365425205162783 0.08395777655057959 0  2.072662025974815 0.2975086504196739 0  0.4581080832182547 0.3648371739579888 0  0.3874522734668214 0.2295447548840689 0  0.7827853612484443 0.04106550386289586 0  1.887722846421017 0.1760882698830035 0  1.472640588990488 0.1118278026240017 0  1.865937103925594 0.2604137786483804 0  1.463913572748262 0.2030442564990043 0  1.376426316059077 0.3186741374914345 0  0.6641993820150034 0.3141688596240831 0  0.2943117490824315 0.2130987422685822 0  0.3478153998082709 0.1666571081082676 0  0.3427990510599805 0.2575950027870776 0  0.7997118993855807 0.2216171933356366 0  
[...]
<PointData  Scalars="f_10-1"> 
<DataArray  type="Float64"  Name="f_10-1"  format="ascii">6.6476160910272023e-04  1.5037245250761367e-04  1.0585820556192910e-03  2.5300619493891330e-03  2.1413115108928245e-03  1.5241146406691959e-03  7.9628011001996592e-04  3.7217599505702563e-04  3.2082275921868761e-04  3.6370009437303489e-04  4.5903262861519029e-04  7.9068721601252719e-04  1.4995651997208809e-03  2.1101128098234760e-03  5.0879564049898266e-04  3.5110606583357139e-03  3.4528075852490429e-04  1.8880511082999848e-04  4.1394652062386669e-03  1.7080957162797817e-04  4.0609667568329930e-03  2.9611820096977536e-03  8.4354893772539859e-04  3.8371194677745326e-03  3.2056719439026442e-04  6.8936031438937247e-04  3.2174425401139532e-03  9.6996049627720517e-04  2.7383203520203810e-03  1.9180103100733059e-03  1.8806857344942820e-03  1.9774838678871818e-03  1.9740008216925838e-03  1.9502633880683767e-03  1.8170358654210547e-03  1.9830072431868237e-03  1.9214065782126605e-03  1.0230684914471556e-03  2.6298344073600512e-03  2.3594743807115459e-03  1.7498929357326088e-04  4.2244835230587198e-03  2.8468696978511641e-03  1.3777769326861113e-03  7.7090029925126606e-04  9.0956728165477807e-04  3.0846560614239053e-03  2.8369811150840097e-03  3.6715126724726813e-03  4.1269453383839234e-04  3.9994568745461596e-03  2.3958092869558537e-04  1.5787499650668746e-04  2.4107966119582820e-03  6.0343577261288419e-04  1.2978864981602698e-03  3.3583167364745511e-03  1.4317856840514397e-03  2.8293037712823232e-03  2.4916038847124919e-03  9.7428182998757250e-04  2.6819677961236001e-03  3.9955683579892994e-03  1.3386963696193251e-03  1.3717861615776192e-03  2.5598582548246626e-03  3.6594496806413475e-03  4.9333173379381137e-04  3.1755946387907683e-04  5.1357135213459340e-04  2.0194096631014001e-04  2.1525774001420173e-03  2.9053397552516937e-04  1.9841327364238776e-03  3.9779066172247789e-03  3.4904802830332472e-03  1.1466973750224585e-03  2.8233497433100604e-03  2.6902214129287186e-03  4.8141332641906428e-04  3.3440123518913675e-03  3.2882338509701492e-03  2.5206884256045669e-03  1.1542711349007159e-03  9.6650932071961325e-04  1.2663661625229689e-03  3.0060513900800724e-03  1.0851695650540450e-03  8.1080451542350611e-04  8.8377162862610830e-04  7.3023197086518384e-04  1.9965309854739132e-03  4.5899289120667347e-03  2.5344158988793858e-03  2.1300910267308326e-03  1.4429494217346882e-03  2.4078214706177979e-03  5.1125378044938660e-03  2.1412136261194851e-03  2.3626037648277325e-04  1.9929276044390557e-04  1.0440301212618363e-03  2.5214953065445067e-03  3.2858675236184529e-03  3.6547029762764427e-04  2.0173475581127557e-03  1.6588924819638915e-04  1.0546173767880982e-03  2.9025751328960857e-03  3.4337073205333974e-03  2.5474633265351893e-03  1.7373877915000295e-04  3.4957418841046264e-03  2.1972581043641428e-04  1.0642764169512173e-03  2.8853575631901780e-04  3.1018941582367757e-03  4.6051095979937644e-04  9.3653735992583597e-04  1.4492774306381492e-03  8.4568498498499231e-04  6.4482804132772029e-04  3.5988352768804117e-03  1.9774893663701528e-03  1.6177233793607999e-03  1.9582849135493640e-03  6.8447184194777449e-04  4.6260368325984276e-04  1.5865108231763270e-03  9.9288189349511355e-04  4.4980498314504619e-03  1.2133381720993816e-03  1.5213391748357132e-03  3.9211475752551706e-03  8.0910734799262136e-04  2.5766172171787713e-03  8.0143021883563592e-04  4.1749962182491065e-03  2.8507451548802618e-03  1.0354519488545346e-03  5.9237073466459288e-04  5.1287218033320816e-04  3.8914933805981365e-03  3.4935788279851084e-04  3.0218790358562298e-03  2.8558570392330906e-03  1.4324323051930765e-03  9.4070215196043216e-04  7.2921749538163881e-04  3.1492263846637030e-03  2.7908237139034897e-03  2.5734728320253508e-03  2.7686957703067336e-04  3.7561500541496203e-03  1.7804275874611566e-04  4.2073378191390971e-03  4.1929309038947586e-03  3.5496218839994802e-03  1.5199471717267771e-04  5.5814166608733498e-04  2.0972173998267798e-04  4.0728535534963620e-03  3.5923583864576744e-03  8.7680550413173303e-04  9.9605932643621626e-04  2.6836479399395059e-03  3.1534382680248195e-03  3.3564925338152854e-03  2.8258996801493216e-03  1.1442800942106223e-03  1.9647164218865674e-03  2.3007204778044523e-03  4.6044074416363539e-04  3.0982357654109776e-03  1.2495734306139999e-03  1.9542848864481224e-04  4.9032953142747729e-04  1.7381922107119791e-03  1.7999321527625454e-03  1.4838897423659512e-03  1.6362412628001049e-03  1.0363267205018777e-03  1.1098692267560856e-03  3.2268020497408741e-03  1.0649999244864447e-03  3.5063989601751134e-03  3.4389803099879758e-04  2.9827513409168959e-03  2.1565246508338698e-03  2.0113078250532891e-03  2.2421447779822274e-03  2.9676866802404176e-03  1.5540450082100570e-03  2.4989017615813431e-03  2.7574800561934397e-03  2.2824078672725283e-03  2.6872802923257298e-03  3.0918471570339483e-03  1.6357744138435404e-04  3.9676250799568213e-03  1.2185912719375736e-03  3.8995552003886515e-04  3.3269972295003475e-03  1.6560256622480984e-03  2.0054527410427159e-03  2.8573807951644261e-03  2.3562881069700745e-03  2.6760183033209895e-03  1.8997621219815286e-04  2.0519174833875671e-04  2.4253325771965420e-04  1.8331595159237996e-03  2.3153054500756271e-03  2.8269179749579416e-03  1.5161681398680354e-03  4.1383838485328749e-03  2.9582936811846363e-03  3.9010781913154514e-03  8.1552188543723182e-04  4.0688250622244303e-03  9.1744275543382419e-04  1.3533543626409439e-03  2.8259397473449372e-03  4.7216290872175126e-04  8.6351981768631968e-04  8.0769955025589114e-04  1.1235713518621120e-03  1.3666347784445118e-03  1.8617369634994598e-04  2.5565725261470626e-03  2.2882059741262269e-03  1.1323168751516690e-03  1.0099530050577915e-03  9.3500895689436613e-04  6.7782099367546644e-04  5.0199292566337358e-04  5.6660188516310559e-04  3.5306626109833802e-03  1.2920942213604089e-03  1.0260266516122704e-03  1.4812673038876337e-03  2.3852404477092866e-03  1.8855527123340317e-04  2.1335458200661835e-03  1.2636195135281119e-03  8.3336557710064795e-04  3.5078675446906207e-03  3.2065190910050482e-03  3.2399128497641815e-03  8.7866675991734298e-04  1.6665103237005884e-04  4.3162175678250602e-03  3.6573534650225542e-03  2.8454702958433287e-03  5.4011495825030667e-03  4.4558627841902471e-03  2.5018132065064099e-03  3.8009438177603098e-03  2.3751149855512447e-04  1.7933153565081395e-04  4.2483402904812092e-04  2.8477432583464725e-04  3.0765543846209440e-03  2.6468715565761353e-03  2.9805063521151443e-03  1.9837363962268580e-03  4.4628245214994470e-04  2.1156359419839442e-03  1.1068615425427661e-03  2.6277454682716863e-04  2.7510930601559423e-03  1.2502661833371251e-03  4.2524975275193052e-03  2.6494159548044048e-03  1.7137347531042369e-03  2.0302275403197008e-03  7.1929283650185418e-04  3.7933918858232846e-03  7.4244697112801027e-04  1.0672276838052596e-03  5.6679766904823637e-04  8.7783071898618788e-04  2.6586750423517313e-04  1.2736036641605361e-03  1.4374838846480528e-03  1.0326947536223267e-03  6.5561206139218406e-04  2.6135978904761521e-03  2.3107370067732697e-04  7.0919745604791098e-04  3.4443423611761194e-03  2.5187391128123644e-03  4.2506972082530870e-03  6.1345952207608875e-04  3.3229443937239271e-03  2.2260230081059564e-04  2.3856951176620166e-03  4.1882985030171210e-03  2.6480803592849184e-03  3.3299547149205725e-04  1.6546917602328834e-03  1.1146067289926347e-03  2.2729236219709028e-03  1.9049803020228314e-03  2.9619410258676687e-03  3.6630893575110590e-03  2.0229547027732805e-03  6.9360303341090132e-04  3.2716511989992190e-03  2.2471535407387537e-03  2.4928195788708105e-03  2.2206177495098741e-03  1.0587576994884589e-03  1.3684826231204444e-03  8.2594658623398490e-04  2.2995885131370671e-03  2.9301564149136336e-03  2.5640875403747454e-03  1.7690611237620537e-03  3.6196987721292455e-04  2.6572008669753463e-03  1.3649044965935160e-03  2.0546419956327484e-03  2.6656029448664763e-03  2.5636068508557756e-03  3.5228871501774740e-04  2.2171835126692176e-03  2.4623912758649173e-03  2.6017713260549193e-03  2.5973784497965000e-03  1.6089625943679258e-04  3.0226742164288234e-04  2.9910526271261896e-03  1.2262116000649162e-03  2.4423202744930411e-03  1.6210448042977449e-04  2.3575322484484323e-03  1.6802050337007470e-03  7.5000998741162268e-04  1.7603586622298990e-03  3.0522043292499058e-03  3.7975423998345653e-03  8.6018169163420966e-04  9.1175494283546516e-04  3.6306029855106758e-03  3.5684879297954298e-03  1.0705248286275646e-03  2.5457796093822961e-03  7.3660404762282623e-04  4.8110033201716738e-04  3.8621168473057205e-03  1.6344847023553630e-03  1.3599970757987535e-03  2.2192061129909964e-03  9.5126805714510203e-04  1.1507565203231766e-03  7.8960496593526641e-04  2.7015574088746436e-03  2.2514334734017758e-03  2.7298840975373127e-04  2.8190681061194120e-03  5.2447268791916781e-04  2.7112436031883794e-03  2.9212220723736772e-03  6.7809037969225963e-04  2.2516446062532402e-04  3.0865149972462242e-03  1.5045645387135049e-03  3.7122650571135441e-03  1.9148762223352574e-03  3.3212874132180241e-03  1.6081512679806402e-03  7.8060194513304075e-04  1.7616477555424821e-04  1.6171360039141478e-03  1.1007965082994206e-03  2.3716685320652312e-03  3.0333297191734491e-03  3.9713100614484622e-03  3.9332265432719081e-03  1.9280704367433306e-03  8.2222208968704962e-04  2.4407855497634752e-03  2.3502571411162291e-03  1.5211267493003427e-03  3.1789724542709394e-04  1.5796752370806635e-03  2.9595390560530409e-03  1.0305609391877914e-03  3.2161825528082893e-03  2.7643457178372767e-03  9.7479963820224847e-04  9.5599048013962531e-04  1.1245572249819439e-03  1.0569167312655771e-03  1.0639365122738643e-03  8.7826283493680881e-04  1.1557681700923024e-03  1.5076726977726962e-04  3.4377437710643960e-03  3.9307130355109793e-03  6.5686792111594545e-04  2.6370845154412175e-03  1.3749971351597605e-03  1.2973385128236925e-03  3.2606681992180925e-03  1.8970037291386797e-03  2.0800995951008314e-04  4.4004156475943154e-03  1.0459243551508123e-03  5.3916397524696527e-04  3.6611256392544617e-03  3.8521490244691320e-03  1.6349554101457403e-03  2.7975146836197877e-04  2.6418922707859430e-03  6.2684936191089499e-04  1.1247766184162547e-03  2.5685206161342421e-03  4.2679499298304670e-03  3.9703772525962839e-03  2.3421711546608307e-03  4.1584239665916978e-03  1.4419418206139420e-03  1.3429052025776189e-03  4.9414280524162028e-04  1.3482567343722992e-03  2.9727598361985197e-04  3.6055770792853274e-03  2.5129407460122164e-03  3.7528763212559364e-03  4.5494789216787379e-04  8.0325814028148386e-04  1.8602379495652750e-03  1.9118003309917871e-03  1.3550150553988684e-03  1.2392599755046731e-03  1.0731900414980402e-03  7.1130851348808497e-04  9.4271995193299072e-04  1.5162123148292257e-03  1.4510239995844409e-03  1.4767201385144843e-03  2.4207929814789501e-04  4.2444558174752674e-03  9.2714365506433661e-04  1.1027280363074465e-03  1.9563788557211219e-04  4.7722270622748558e-03  2.7706970278095779e-03  2.7437665643961270e-03  3.4698678915756806e-03  2.7602156989286954e-04  2.7376088962129445e-03  1.7986878137069061e-04  2.6198081093742201e-03  2.9627619483132434e-03  1.6896974873941439e-03  3.0524376784158355e-03  7.8859443203789926e-04  9.2517420059377950e-04  3.7304361892429574e-03  2.0606561761536864e-03  2.0177014081485755e-03  8.7701077543019359e-04  9.6435011156098560e-04  2.3369100786956665e-03  1.9549895375382581e-03  1.8180875493458519e-03  2.7168059928607885e-03  9.0392655234226035e-04  1.9867815189541305e-03  1.1315662677513294e-03  1.6758746605071105e-03  2.5286208730669450e-04  8.6106074004490868e-04  3.4094350360269463e-03  4.3194850929945735e-04  4.0267213895763405e-04  3.4229891244227998e-04  3.5921134744384053e-04  1.2238220793076248e-03  1.2593292515623632e-03  4.7187400667838284e-04  1.8778940918193659e-03  2.5856624652771162e-03  3.1132080342443609e-03  2.0911976077872159e-03  2.1288071335872931e-03  1.3378403049298436e-03  1.6262059645826587e-03  2.7011183536869675e-03  1.8947761277013782e-04  4.2243109588853073e-03  7.3221919055284780e-04  1.1060990511607329e-03  3.1641724327559151e-03  1.2544340672395156e-03  3.4156730900467931e-03  3.4717191763172376e-03  3.2546875242260962e-03  3.2534408978002385e-03  3.1851392344656739e-03  3.1226386409800369e-03  1.7301598833187699e-03  1.4816547092257304e-03  3.3968447051371080e-03  3.8786337061440844e-03  4.0817376260671211e-03  1.6429639483044687e-03  5.2521333088819603e-04  1.8351905029192675e-04  1.7409175939937091e-04  3.9935433859040557e-03  3.6189556416320792e-03  3.8911133880433976e-03  3.9355089443785674e-03  1.5796120483815130e-03  6.3193203976255781e-04  2.4439356442808257e-03  2.8256251775204982e-04  6.3260244939056731e-04  5.0502836472709122e-04  2.9261858682590003e-03  2.9325691203074349e-03  1.6755125560342483e-03  1.6907181471445319e-03  2.3386062570256252e-03  3.3234110276593840e-03  3.4737917746199714e-03  5.8472550891233059e-04  1.8731040184748697e-04  6.6797990397975506e-04  4.8697562925338118e-04  1.0533279134128807e-03  1.0329049148819049e-03  5.3409935870452248e-04  7.1100628235051735e-04  3.1165690922927815e-03  2.8746588373818379e-03  3.5511628016854147e-03  8.9504506839945951e-04  3.9604224254772670e-03  3.1836996091858315e-03  2.5794974171599672e-04  2.5450993139057290e-03  3.9074307549252199e-04  4.2262348647354843e-03  1.7559306338890373e-04  4.2131866721602388e-03  1.5442508374030546e-04  3.8736909183689329e-03  1.6811047546583000e-04  1.6241450036679835e-03  2.2292521563319444e-04  2.9789941935599574e-04  1.7255988197640228e-04  4.1081293693485928e-03  4.1685641246443205e-03  1.9745995191704200e-04  1.8161613624957976e-04  4.0391354630217391e-03  4.3975733145814531e-04  5.7947942505716756e-04  8.2610609502698602e-04  9.8269419797254579e-04  6.2425808876377545e-04  1.0097597533214474e-03  2.7116441655855345e-03  2.8874817346409756e-03  1.2871897305332188e-03  4.6718469317208976e-04  1.1782032616666173e-03  1.4297234582862440e-03  2.3794583308091614e-04  2.3443792415339410e-03  2.6446683476916604e-03  3.2324194738395304e-03  2.8122995932033145e-03  2.8535022625622171e-03  9.7670093023717510e-04  2.5699548491196753e-03  3.0091158210415309e-03  3.1545816926691669e-03  2.3094392437183814e-03  2.5692204700069180e-03  1.9109243447223217e-03  2.2928216891866996e-04  2.5065699567114572e-03  1.2168354912252925e-03  2.2474337281884523e-03  1.9567022468556070e-03  2.5323090142914321e-03  3.0893480427026158e-03  3.4475873698952587e-03  2.9220987231907500e-03  3.6329497686354477e-03  3.9290373793759704e-04  3.9170443131864617e-03  8.3288485348367034e-04  4.0467079610940803e-03  1.0399946123422557e-03  1.2148447471401469e-03  7.5439512971347785e-04  3.9828858093404491e-03  1.6759155693758187e-03  1.5889441134516651e-03  3.1760401849761357e-03  1.8340901005162349e-03  1.5134980123296725e-03  2.4359407946757641e-03  2.5078746770283702e-03  1.9623710342487984e-04  3.3908701347478577e-03  3.1922618741540387e-03  2.4629602451351255e-03  2.4128911564494379e-03  2.8234305173859744e-03  2.0327375711529099e-03  2.6843239579848626e-03  2.6445884586778451e-03  2.0957682791383565e-03  1.1236044523663224e-03  2.1835180733795912e-03  2.7711799683871065e-04  1.5301885748055454e-03  1.2850884412277633e-03  7.4857036495327512e-04  3.5034579005127826e-03  1.0170148616911732e-03  9.8813982068985664e-04  2.9207386645150880e-04  2.7457609153330618e-03  2.7418164743747021e-03  3.0279223497684409e-03  2.3152161706663120e-03  3.0762812085601075e-04  1.6688459480291375e-04  8.3127809008011553e-04  2.9970686606760047e-03  1.0641300730428733e-03  1.6848362196707272e-03  1.9729852336007275e-04  9.3513623902409277e-04  9.5042244588289411e-04  2.6267225384261390e-04  2.2150090073068405e-03  2.7725132466787472e-03  3.5643311407307231e-03  2.6324390536540290e-03  1.6101161929058772e-03  1.0149362636581248e-03  8.1142358166002855e-04  2.0491981688192462e-03  6.8558218789136133e-04  3.1278356295015145e-03  9.1576019981268241e-04  2.3490826707217838e-03  2.2735571614856858e-04  2.1981668344903172e-03  2.7225374265995791e-03  2.2950318851852150e-03  1.6967952103996123e-03  8.8576389225721020e-04  2.4245506362619842e-03  2.4385215275045027e-03  1.8159560274953180e-03  7.7783869333647264e-04  2.6955361689757532e-03  1.5377165352174467e-04  1.5589244451706986e-04  1.3623010033413023e-03  1.1483048269259840e-03  3.0740397348741743e-03  3.4483136680408767e-03  4.1037243745744717e-03  2.9453456044247366e-03  1.7212353114629512e-04  4.2723192068205062e-03  3.7315238647011506e-03  1.3037397226964953e-03  3.0042604658750811e-03  3.2346576315310247e-03  4.3441531727318669e-03  7.8897420190191447e-04  2.8017652815770441e-03  3.7245532796219552e-03  3.9514445601447162e-04  3.6004336383359025e-03  1.7899060855995475e-04  1.1206279407469230e-03  3.4625433613930234e-03  9.6638361406947845e-04  2.3349085342554417e-03  1.2673712201434161e-03  2.4378139743720909e-03  1.9700322547417911e-03  2.8823401810978227e-03  3.1724340328059364e-04  1.6357296933849361e-03  1.8686743685554449e-03  1.3614682967586576e-03  2.4334419458628032e-03  1.6767623451723220e-03  1.1274768022790215e-03  2.6021922851068181e-03  2.2406226605585777e-03  6.0583802325872539e-04  4.3415528182528095e-03  6.2349836189691740e-03  2.2144932390262499e-03  3.1488803348579111e-03  2.0710884003255110e-03  2.1795224328650764e-03  2.6159662149815113e-03  2.1388065025116447e-03  7.4614322140382507e-04  2.6675645416323374e-03  3.2491566399845995e-04  3.8337047382275182e-04  3.4615415285462387e-03  1.9305628916916637e-03  1.9735090602638040e-03  2.6355461697753547e-03  2.4310169052860677e-03  3.7208734588589842e-03  5.6972357940216390e-04  1.8597687394862441e-03  2.9892917304703550e-03  2.8973544262663091e-03  3.3278287411686765e-03  3.7532470450806891e-03  1.3818785302222086e-03  5.6763667831121788e-03  2.8277407127795633e-03  2.5770522880100258e-03  3.7565658003666201e-03  3.3011903763468060e-03  3.9322366322704040e-03  9.7563793683598304e-04  2.8559997025137426e-03  3.2498677869600419e-03  3.1438032086237970e-04  8.4032012193380710e-04  2.6695456990215014e-03  4.8651241447613482e-04  2.4045171109402142e-03  2.4140215047974996e-04  1.3901776455898056e-03  2.7060607789559719e-03  2.2289928141362928e-04  1.0010271420459660e-03  6.9514276065896804e-04  2.2195883440033227e-04  2.7026358020237839e-03  2.8580840554321158e-03  2.4369683062245360e-03  2.1782088892303825e-03  2.3560376364605905e-03  4.1513498317406429e-03  2.0719133531516064e-03  2.5587561019351245e-03  1.3205993841355753e-03  6.6160762468050007e-04  8.9387729064388814e-04  9.1358430640019726e-04  1.1734899473442959e-03  1.8345223335974024e-03  1.1682905005880020e-03  9.0666792232450008e-04  2.1285905331043617e-04  1.7905764535823315e-03  3.2368400055208593e-03  3.1949888945097525e-03  3.3801108650939183e-03  3.1874422169332847e-03  4.1808412970400343e-03  4.1270559568011497e-03  7.8584860546924073e-04  1.7431644731747998e-04  1.9437694056082241e-04  1.5634017487671333e-04  3.0468817549252122e-03  1.7692217657155234e-04  6.5472828837142790e-04  4.2179195929508808e-03  1.2143798937431754e-03  1.6633677548500644e-03  3.1438666111356704e-04  3.8882317932106733e-04  2.8460323731073775e-03  2.9319162161679123e-03  2.8848282074712341e-03  1.2546790946229181e-03  6.2587478734375172e-04  2.9392415487041980e-03  5.4712902563729766e-04  2.6412879291696834e-03  2.2811470243275835e-04  1.9803190205605137e-04  1.4486470071234652e-03  1.9961608200116045e-03  3.6929215467705156e-03  2.1281309379348285e-03  2.4877052198109422e-03  2.1718948693212818e-03  3.0038160662474210e-03  7.5188253111879689e-04  1.5533562814381231e-03  1.8240273258066750e-03  4.1233987061312025e-03  2.8119881116100533e-03  1.0342361346418534e-03  9.8344964722432921e-04  4.1835730174424671e-03  6.8511894016326860e-04  2.8219475672612276e-03  1.6655313424316410e-03  1.3095125823628371e-03  3.4016147949219948e-03  2.7748606178316627e-03  1.2955426191816448e-03  1.8942720814101315e-04  1.4739594704790710e-03  1.7621813463167577e-04  3.0221206887241316e-03  1.9016303549002815e-03  3.5905389474349971e-03  2.1026538092937296e-03  9.9037275411610