<?xml version="1.0"?>
<VTKFile type="UnstructuredGrid"  version="0.1"  >
<UnstructuredGrid>
<Piece  NumberOfPoints="2446" NumberOfCells="4585">
<Points>
<DataArray  type="Float64"  NumberOfComponents="3"  format="ascii">0 0.41 0  0 0 0  2.2 0 0  2.2 0.41 0  0.2404508497187474 0.2293892626146237 0  0.25 0.2 0  0.2404508497187474 0.1706107373853764 0  0.2154508497187474 0.1524471741852423 0  0.1845491502812526 0.1524471741852423 0  0.1595491502812526 0.1706107373853764 0  0.15 0.2 0  0.1595491502812526 0.2293892626146237 0  0.1845491502812527 0.2475528258147577 0  0.2154508497187474 0.2475528258147577 0  1.1 0 0  1.1 0.41 0  0 0.205 0  0.55 0 0  0.55 0.41 0  0.275 0 0  0.275 0.41 0  1.65 0.41 0  1.65 0 0  0.8250000000000001 0.41 0  0.8250000000000001 0 0  1.375 0 0  1.375 0.41 0  1.925 0 0  1.925 0.41 0  1.5125 0.205 0  1.7875 0.205 0  0.6875 0.205 0  0.9625000000000001 0.205 0  1.2375 0.205 0  2.2 0.205 0  0.4687002074688797 0.2068568464730291 0  1.99375 0.2152743902439024 0  2.0625 0 0  2.0625 0.41 0  2.2 0.3075 0  0.4125 0 0  0.4125 0.41 0  1.7875 0.41 0  1.375 0.1486128048780488 0  1.5125 0 0  1.7875 0 0  1.5125 0.41 0  0.8250000000000001 0.2613871951219511 0  0.9625000000000001 0.41 0  0.9625000000000001 0 0  0.6875 0.41 0  0.6875 0 0  0.1375 0 0  0.1375 0.41 0  1.2375 0 0  1.1 0.1486128048780487 0  1.2375 0.41 0  1.65 0.1486128048780487 0  1.126715909090909 0.2793064024390244 0  1.676715909090909 0.2793064024390244 0  0.8517159090909092 0.1306935975609756 0  1.348284090909091 0.2793064024390244 0  0.34375 0.3032389320646208 0  1.894702181800738 0.1282910975492754 0  2.092797818199262 0.1282910975492754 0  1.85625 0.3075 0  0.61875 0.3075 0  0.61875 0.1025 0  0.3648540804333487 0.1240075933101478 0  0 0.3075 0  0 0.1025 0  2.099172119769978 0.25625 0  0.48125 0.09238439620688085 0  0.5781001037344399 0.2059284232365146 0  0.48125 0.3196743479159776 0  0.7265881057911006 0.3055240343720796 0  1.99375 0.08395950269330846 0  1.459960956013612 0.3075 0  1.569025960719943 0.2986889805672169 0  0.75625 0.08213100772579164 0  1.03125 0.3278689922742084 0  0.923871252904788 0.3078247185783941 0  1.959375 0.3126371951219512 0  1.749222215368287 0.1025 0  1.275777784631713 0.1025 0  2.2 0.1025 0  1.225938124459196 0.3075 0  1.550777784631713 0.1025 0  1.000777784631713 0.1025 0  1.44375 0.07430640243902442 0  1.16875 0.07430640243902437 0  1.899250267340833 0.2229966846119207 0  0.1020898364287272 0.3140258291809757 0  1.766482954545455 0.2934032012195123 0  0.3405058858996321 0.2119987970531874 0  0.7710785630958338 0.1710968191298857 0  1.046078563095834 0.2389031808701144 0  0.2 0.3400647632937836 0  1.421109702350723 0.2261157654379721 0  0.2800464974185557 0.08982544815605742 0  0.098916018031319 0.09171660955420841 0  2.13125 0 0  2.118919042110979 0.3422084711244843 0  1.30625 0.41 0  0.89375 0 0  1.597888256393107 0.2173787389261347 0  0.20625 0 0  1.829299675393195 0.07400700849299596 0  1.71875 0.41 0  1.16875 0.41 0  2.038220665644273 0.332420740103091 0  0.34375 0 0  0.417496017710808 0.2696595573092803 0  0.2 0.07687845740457822 0  0.9295982307099278 0.1343158415898188 0  0.07390688010811153 0.1697064032433452 0  0.5238366813727013 0.2578302467013575 0  0.05452951551825875 0.25625 0  0.5229630068078351 0.1548816096928243 0  1.452769549894695 0.1548122580621249 0  1.369219062229598 0.07430640243902442 0  1.30625 0 0  0.8504409521244898 0.3356935975609756 0  0.8821881244591965 0.205 0  1.720943423819132 0.1714577452753128 0  1.157188124459196 0.205 0  1.094219062229598 0.07430640243902437 0  1.03125 0 0  1.304056576180868 0.1714577452753128 0  1.67579304192913 0.07430640243902437 0  0.2751941921308361 0.3346083473122598 0  1.209670467133757 0.1362100266964769 0  1.025335513626278 0.1700681449722324 0  0.7562500000000001 0.41 0  1.58125 0 0  0.7567170593862014 0.2409196493502535 0  0.6926714215682891 0.1272249611432207 0  0.4139715849905988 0.3397932387114203 0  0.9840787304190477 0.2717749043358119 0  0.06875000000000001 0.41 0  0 0.35875 0  0.9281250000000001 0.06276726142697993 0  0.5507396469029935 0.3219409231578227 0  0.5504468037989405 0.09136885600634273 0  1.58125 0.41 0  1.631724228912893 0.3381867502687533 0  1.825608881788174 0.14499488549201 0  1.85625 0 0  1.44375 0 0  1.44375 0.41 0  1.85625 0.41 0  2.13125 0.41 0  0.7562500000000001 0 0  0.89375 0.41 0  0.4812500000000001 0 0  0.34375 0.41 0  0.4812500000000001 0.41 0  0.20625 0.41 0  0.06875000000000001 0 0  1.16875 0 0  0.61875 0 0  0.61875 0.41 0  1.03125 0.41 0  1.71875 0 0  1.99375 0 0  1.99375 0.41 0  1.340625 0.3489494290853124 0  1.134375 0.3489494290853123 0  1.700180620188976 0.3438659752031281 0  2.135782184673599 0.07126652247502523 0  1.668441847249787 0.2129203728327609 0  1.295782514339747 0.2378437748815763 0  0.8233075729931248 0.06842334294821524 0  1.409375 0.3520314716057996 0  0.403505597322782 0.182067236678212 0  0.378125 0.05794951541303489 0  0.3043468223249023 0.1518321115979534 0  2.129248544730567 0.1906135162504124 0  2.060771381434487 0.1989445750470348 0  2.013252586573865 0.1496169464686054 0  1.942766402200229 0.1734448904596831 0  1.895522487186454 0.06076163953489683 0  2.069553871656643 0.06605731020975725 0  1.274680914880868 0.3520219391081363 0  1.614713220494657 0.09473434380863296 0  0.7899021319497519 0.3149123934144827 0  0.69518737419149 0.0634051089053758 0  0.2971740475496061 0.2592172353407536 0  1.72990325744076 0.2380068107952482 0  1.356580098625191 0.2120393231351682 0  2.034370752044885 0.2668681600792073 0  1.51768709249349 0.3426260931494756 0  1.561883724969884 0.1650446847858835 0  1.197344062229598 0.2523725417393646 0  1.804085235518364 0.3468178408964637 0  1.817887819205233 0.2589243285818559 0  1.905897727272727 0.3485060975609756 0  0.6719798073392919 0.2688965171178177 0  0 0.05125 0  0.653125 0.35875 0  0.6396896119294488 0.1627615407790282 0  0.4274150154087412 0.1242548552168279 0  1.192836486056382 0.3562350748565544 0  0.8279124365364005 0.183856489168822 0  1.097485222388854 0.2083571153401724 0  1.28257088594801 0.2944411014911587 0  1.474860187679412 0.2504218616229368 0  1.406767003493824 0.2829282258560709 0  0.446875 0.04619219810344041 0  0.515625 0.04585361801037557 0  0.592043440706648 0.05125 0  1.845656689180403 0.1998310418452388 0  2.144958525570388 0.2909790873294231 0  0.6171090763650112 0.2492366900333857 0  2.2 0.15375 0  0.5145586920831158 0.3648371739579888 0  1.57794966442982 0.3540357145964566 0  0.721875 0.3633107922168974 0  0.0496154796471391 0.333125 0  0.5843750000000001 0.3662560860076676 0  0.5810878747760798 0.1474002776121195 0  1.508991196088596 0.1421783375065625 0  0.8840670607017558 0.2640994375393898 0  0.09776612425612034 0.2204896805326566 0  1.50436820029908 0.06143401634903343 0  1.223857000523521 0.0823554862453532 0  1.153316824384777 0.1289850171317837 0  2.148922302309752 0.1258841779285271 0  0.309375 0.04312325590431198 0  1.621993280276081 0.2841214267927899 0  1.550118654119087 0.2461998729100966 0  1.327182649291491 0.1216967252533594 0  1.051977450479407 0.1221382572915816 0  1.753125 0.04556020050186112 0  1.271875 0.04556020050186116 0  0.9816084133102366 0.05126138213476004 0  1.039051841454368 0.0572224914831029 0  0.9719230514536006 0.3480477870845102 0  1.94956388244759 0.1180512551534177 0  1.949997712993411 0.04965831614304109 0  1.771961817615021 0.1530278789497521 0  1.909246823951428 0.2812757146784527 0  0.2459536687882397 0.04668633953831142 0  1.948575539857022 0.2445328248721197 0  1.697271520964565 0.1233917627620729 0  0.7964897648514618 0.1211426571931604 0  1.065625 0.3689344961371042 0  1.085849084308977 0.3170853572226867 0  0.4702981435440001 0.260434880697798 0  1.577403511714593 0.05463601888079143 0  0.05622663515370135 0.05493816910862376 0  0.3267207591099919 0.3566194660323104 0  0.9003051618565143 0.3564049499960621 0  1.751571320346033 0.3651102912045228 0  0.1583785085108421 0.2994699345738728 0  0.1455283439499995 0.3542795598723423 0  2.2 0.35875 0  0.2347662494194072 0.298325008655211 0  0.1527284455616188 0.1065771775690181 0  0.1382139529076665 0.05427454456341477 0  0.8749341636311069 0.05110114999892954 0  0.643661668713109 0.05693499781019222 0  1.466879772203159 0.3611261772912453 0  1.990280163552011 0.3564754268533217 0  1.17471064520912 0.2990917256188288 0  0.5202693090594349 0.206382495511728 0  0 0.25625 0  2.2 0.25625 0  2.2 0.05125 0  0 0.15375 0  1.853978576207987 0.35875 0  0.9787513713939683 0.1487523696999336 0  0.240625 0.3722153812029779 0  1.515638456102889 0.2882700110184686 0  0.09048297387599738 0.3637717362208066 0  2.150453692751374 0.2387066338105111 0  1.323782677156475 0.04897634338873398 0  0.8074131292871642 0.3624701995505916 0  1.409375 0.03715320121951221 0  1.406484531114799 0.1087852750766809 0  1.134375 0.03715320121951218 0  1.627401732573545 0.04552157221025036 0  0.1170173172005315 0.1427610859166811 0  2.045405893604797 0.1105340662939892 0  1.255408269734577 0.1577307500159216 0  2.028125 0.03707597992059326 0  0.4743610090857199 0.1421513964721819 0  0.9354010469015898 0.250631300585664 0  0.04420832937638274 0.128125 0  0.8922386349349938 0.0992956419364831 0  0.1197849154434487 0.2663398672460083 0  1.248258025468107 0.2565907092181813 0  0.3746885856929528 0.370723531618974 0  1.203125 0.0366132337404304 0  0.5724622277005015 0.2751253816079333 0  0.3365425205162783 0.08395777655057959 0  2.072662025974815 0.2975086504196739 0  0.4581080832182547 0.3648371739579888 0  0.3874522734668214 0.2295447548840689 0  0.7827853612484443 0.04106550386289586 0  1.887722846421017 0.1760882698830035 0  1.472640588990488 0.1118278026240017 0  1.865937103925594 0.2604137786483804 0  1.463913572748262 0.2030442564990043 0  1.376426316059077 0.3186741374914345 0  0.6641993820150034 0.3141688596240831 0  0.2943117490824315 0.2130987422685822 0  0.3478153998082709 0.1666571081082676 0  0.3427990510599805 0.2575950027870776 0  0.7997118993855807 0.2216171933356366 0  
[...]
<PointData  Scalars="f_10-1"> 
<DataArray  type="Float64"  Name="f_10-1"  format="ascii">6.8229109738774264e-04  1.6156734595351892e-04  1.0728224822223564e-03  2.5633499815555347e-03  2.1559885629612724e-03  1.5382206105448786e-03  8.0991352955132683e-04  3.8570960908215605e-04  3.3454397084823234e-04  3.7768079312188585e-04  4.7330511881496669e-04  8.0526646711093198e-04  1.5143731535773347e-03  2.1250413462171446e-03  5.1975565046871047e-04  3.5277428939462416e-03  3.5966286931649890e-04  2.0023763390070940e-04  4.1562304931714129e-03  1.8235497512182765e-04  4.0779382007948822e-03  2.9777908642683831e-03  8.5403577837470568e-04  3.8538515138839663e-03  3.3175814576194568e-04  7.0008621440885411e-04  3.2340523106918128e-03  9.8057697572274667e-04  2.7568463252507602e-03  1.9316098757603695e-03  1.8941459556163075e-03  1.9915631932973664e-03  1.9879229780894346e-03  1.9640282778269568e-03  1.8336813977026223e-03  1.9972548294803949e-03  1.9354954091068499e-03  1.0346996907834704e-03  2.6532262161810404e-03  2.3831829075581581e-03  1.8654296162437826e-04  4.2412925829017059e-03  2.8638444092914050e-03  1.3902419048637954e-03  7.8150783903729155e-04  9.1999378550611406e-04  3.1012324912140037e-03  2.8521592560537415e-03  3.6882229884186136e-03  4.2376733690866516e-04  4.0162088733639882e-03  2.5088962965011982e-04  1.6920093064131642e-04  2.4281185201523625e-03  6.1428645541510311e-04  1.3105385512225754e-03  3.3749632528637130e-03  1.4440478597675752e-03  2.8446759339015386e-03  2.5067442724677758e-03  9.8674976081536523e-04  2.6972437896932784e-03  4.0114590492111701e-03  1.3504608754752307e-03  1.3842740733151179e-03  2.5757490575892363e-03  3.6755028215047047e-03  5.0547674501711390e-04  3.3025441885813615e-04  5.3013540254948977e-04  2.1414245445984029e-04  2.1693824058001310e-03  3.0264574497997971e-04  1.9982944484873834e-03  3.9941429980549703e-03  3.5064582992837268e-03  1.1579195436320397e-03  2.8390730029347051e-03  2.7057578122847365e-03  4.9319974385148046e-04  3.3601861364505334e-03  3.3041645770210321e-03  2.5373867342165565e-03  1.1656004605510170e-03  9.7821497834348092e-04  1.2798530265150543e-03  3.0218644745535149e-03  1.0966537664505130e-03  8.2270721317966033e-04  8.9493867462888852e-04  7.4162476574960367e-04  2.0105057774730778e-03  4.6064213957195755e-03  2.5498546498479656e-03  2.1445818106847247e-03  1.4562521546929235e-03  2.4224279551025773e-03  5.1289047495515277e-03  2.1553428824653913e-03  2.4885976789378847e-04  2.1144541301104251e-04  1.0569066759803811e-03  2.5438719770512291e-03  3.3024945303941683e-03  3.7660010310726268e-04  2.0311768888961542e-03  1.7735820312429735e-04  1.0655104608380595e-03  2.9192889581938146e-03  3.4503719919796827e-03  2.5662247294042824e-03  1.8531554374943214e-04  3.5113134462730813e-03  2.3217043727000199e-04  1.0767637222224792e-03  3.0217464426599558e-04  3.1171999319259580e-03  4.7601211126665550e-04  9.4960067679834294e-04  1.4618137634894027e-03  8.5691651870284477e-04  6.5560830560000571e-04  3.6151547189791611e-03  1.9914572066808398e-03  1.6304335415409132e-03  1.9720962871556933e-03  6.9592404756786675e-04  4.7362684391877134e-04  1.5995012109466670e-03  1.0038545562799468e-03  4.5142609967085507e-03  1.2256760774300105e-03  1.5344751013784926e-03  3.9378957543702792e-03  8.1965624384217940e-04  2.5914256623432524e-03  8.1392520039178635e-04  4.1914256690698225e-03  2.8660429248150115e-03  1.0529425644451753e-03  6.0964596313959208e-04  5.2432295632927784e-04  3.9077489596468706e-03  3.6139891444323427e-04  3.0384559337075165e-03  2.8719711536976666e-03  1.4445231882112522e-03  9.5117068090703550e-04  7.3987670887922451e-04  3.1658142004799220e-03  2.8083068617899176e-03  2.6018137371044414e-03  2.8811452283125015e-04  3.7728782870047077e-03  1.8954087350944420e-04  4.2242070198682006e-03  4.2097140936418788e-03  3.5667587376758893e-03  1.6321720319738826e-04  5.6905391537556227e-04  2.2109182045261814e-04  4.0896096449070671e-03  3.6090602002759567e-03  8.8724562524363209e-04  1.0070177183071414e-03  2.7039369792684087e-03  3.1697553508016380e-03  3.3728671853689050e-03  2.8421093927999876e-03  1.1565946835726487e-03  1.9784040912671358e-03  2.3151748164261529e-03  4.7202439272352512e-04  3.1145547910527349e-03  1.2632268600414587e-03  2.0732468564116106e-04  5.0357413011114052e-04  1.7528601107055612e-03  1.8140113552999279e-03  1.4963361294289767e-03  1.6490479589518672e-03  1.0471041818191347e-03  1.1213731670456522e-03  3.2431647862405199e-03  1.0763081858504277e-03  3.5224844543679861e-03  3.5552793336068780e-04  2.9979250358009839e-03  2.1707658946598786e-03  2.0251600746924708e-03  2.2582556102996427e-03  2.9838756388045782e-03  1.5667203739248557e-03  2.5137124688158498e-03  2.7739079553758578e-03  2.2971508092417305e-03  2.7043405029749026e-03  3.1072544214586282e-03  1.7504476618573810e-04  3.9842027756814722e-03  1.2317825584560293e-03  4.0253113175476728e-04  3.3434241182539867e-03  1.6695676443070529e-03  2.0193716477739623e-03  2.8729595475326980e-03  2.3709202563603504e-03  2.6913358955263900e-03  2.0168902779239055e-04  2.1683849892832800e-04  2.5414343644465361e-04  1.8465025039367522e-03  2.3353762657446768e-03  2.8419853115011773e-03  1.5307522988971672e-03  4.1550205361340657e-03  2.9745907134955283e-03  3.9176746578837018e-03  8.3246272176875811e-04  4.0854605741999037e-03  9.3034865371797743e-04  1.3655908948314497e-03  2.8411362129221133e-03  4.8681644733975063e-04  8.7448965384607081e-04  8.1915088217100751e-04  1.1358145038463001e-03  1.3797459000066282e-03  1.9798961187643697e-04  2.5718226629297620e-03  2.3027073683310273e-03  1.1443034532121370e-03  1.0221415490019438e-03  9.4562643662429876e-04  6.8883941010267904e-04  5.1329122232193823e-04  5.7791291936844279e-04  3.5470744661542371e-03  1.3037231822641117e-03  1.0368037664693327e-03  1.4935454598018801e-03  2.4007376905177936e-03  2.0043809266818990e-04  2.1482417706850439e-03  1.2753509299072803e-03  8.4570093794145325e-04  3.5244244498671522e-03  3.2225259256772882e-03  3.2553085479046008e-03  8.8950516988611187e-04  1.7817859579918164e-04  4.3327932963453924e-03  3.6738614281328699e-03  2.8619922959154638e-03  5.4169571886785832e-03  4.4727261206055071e-03  2.5307555811147726e-03  3.8164225959178228e-03  2.5029413862335355e-04  1.9108742716946562e-04  4.3621211428714274e-04  2.9638415081024918e-04  3.0929399103521906e-03  2.6654411950887717e-03  2.9962062725792426e-03  1.9979424550843183e-03  4.6183721758438491e-04  2.1352945600554849e-03  1.1203721932752928e-03  2.7599515571591473e-04  2.7679405248830745e-03  1.2629970161874187e-03  4.2693270903488879e-03  2.6647831944514749e-03  1.7309659784650062e-03  2.0474530352947574e-03  7.3029475202450597e-04  3.8099654863864049e-03  7.5328722851337603e-04  1.0789298636642369e-03  5.7786685881941718e-04  8.8854145292039169e-04  2.7915147296684006e-04  1.2854211158317785e-03  1.4502175239264471e-03  1.0438122679080578e-03  6.6844116461549992e-04  2.6285033539926264e-03  2.4379049412869735e-04  7.2112411081745337e-04  3.4597700001354533e-03  2.5336110981588043e-03  4.2673992530076910e-03  6.2447278130405644e-04  3.3385273027175502e-03  2.3490019557049769e-04  2.4037735192604542e-03  4.2049417319029569e-03  2.6629501337375105e-03  3.4437227701557635e-04  1.6674899969177802e-03  1.1263080049853460e-03  2.2877699872596376e-03  1.9185656706711541e-03  2.9778697326799902e-03  3.6792155209900367e-03  2.0374127246306256e-03  7.0688362807765710e-04  3.2869975815240219e-03  2.2615284656383829e-03  2.5080335321052060e-03  2.2350910475314608e-03  1.0707054555748362e-03  1.3817492369312746e-03  8.3838440374546725e-04  2.3140156604369751e-03  2.9456188393711265e-03  2.5789700947296346e-03  1.7823734756036726e-03  3.7524375529671372e-04  2.6788539694996903e-03  1.3770457543431725e-03  2.0688423307293168e-03  2.6805133238638475e-03  2.5792939426088992e-03  3.6676185891874522e-04  2.2325786350972225e-03  2.4865207836722875e-03  2.6273624803247091e-03  2.6190575081519521e-03  1.7229800124516292e-04  3.1368289746832581e-04  3.0076398889659962e-03  1.2376973057708573e-03  2.4592514178964774e-03  1.7350689948338039e-04  2.3721300604409418e-03  1.6934726516737346e-03  7.6064265174811117e-04  1.7735120736192180e-03  3.0687760645333518e-03  3.8142751701635879e-03  8.7064141229759679e-04  9.2238632980596322e-04  3.6473070860732247e-03  3.5850536904897257e-03  1.0835563366578501e-03  2.5739781842322907e-03  7.5413081921437645e-04  4.9310386100404849e-04  3.8787317637236714e-03  1.6479057142221290e-03  1.3730345334268918e-03  2.2335672783203933e-03  9.6185694444461298e-04  1.1619225137286589e-03  8.0018113192464944e-04  2.7196539597582506e-03  2.2659517690825776e-03  2.8616249300452730e-04  2.8362722850115048e-03  5.3558035144929341e-04  2.7271769365022152e-03  2.9376592771595653e-03  6.8981264822253862e-04  2.3723050017662777e-04  3.1037373010322916e-03  1.5173103862885823e-03  3.7289792836295477e-03  1.9284556869075004e-03  3.3377909559118568e-03  1.6216616570330882e-03  7.9140842958162240e-04  1.8784064346348244e-04  1.6303963535791801e-03  1.1142227165503505e-03  2.3864024622450232e-03  3.0487489578687938e-03  3.9872982078614280e-03  3.9492963976071899e-03  1.9420507400847824e-03  8.3389344563164340e-04  2.4554223155335985e-03  2.3647775010094754e-03  1.5341484481352118e-03  3.3188710865073522e-04  1.5940132550477772e-03  2.9753820169931269e-03  1.0414554019812854e-03  3.2319204595278712e-03  2.7822695509839585e-03  9.8539229728930415e-04  9.6651593480092095e-04  1.1356210961166167e-03  1.0684019931512011e-03  1.0750544554574482e-03  8.8887344452766109e-04  1.1672626034560690e-03  1.6196909718763937e-04  3.4538597858293561e-03  3.9464350278302883e-03  6.7424467693308582e-04  2.6576477250269143e-03  1.3874070275068750e-03  1.3105679962113980e-03  3.2766423924135372e-03  1.9132793145914130e-03  2.1957284116620111e-04  4.4160036621238141e-03  1.0568666504660927e-03  5.5116061890860381e-04  3.6777235343805038e-03  3.8685972412120118e-03  1.6478933953899273e-03  2.9324222847572449e-04  2.6569498748238701e-03  6.3869930217303242e-04  1.1360740868091948e-03  2.5836257081795150e-03  4.2847277785788562e-03  3.9873492266247132e-03  2.3567874952418540e-03  4.1753400382163550e-03  1.4554664604451478e-03  1.3564893709129874e-03  5.0661954475953017e-04  1.3617446068837835e-03  3.1009274924765490e-04  3.6213747442411688e-03  2.5276633487434715e-03  3.7694960330867710e-03  4.7102497468712957e-04  8.1396600798223039e-04  1.8736309762951934e-03  1.9254728035293753e-03  1.3669628447940550e-03  1.2515330841260321e-03  1.0849712785564621e-03  7.2218442319684981e-04  9.5471517615166549e-04  1.5286675815546760e-03  1.4636924320040555e-03  1.4890235211073772e-03  2.5498571980079910e-04  4.2608208019055674e-03  9.3891806023288136e-04  1.1147846439265672e-03  2.0772545730770239e-04  4.7884318992968021e-03  2.7865014971822726e-03  2.7596215650782523e-03  3.4853800346531403e-03  2.8927319997614165e-04  2.7526953209956483e-03  1.9165893998827357e-04  2.6346365230373518e-03  2.9792295744829069e-03  1.7026896954290363e-03  3.0689181991114169e-03  8.0114973954691982e-04  9.3561176869790528e-04  3.7467925419179399e-03  2.0761291944810258e-03  2.0325001478965592e-03  8.8844255847474543e-04  9.7802211104553631e-04  2.3556949328164033e-03  1.9707830262167022e-03  1.8339978466874055e-03  2.7328928985471284e-03  9.1492397156310037e-04  2.0006946400264432e-03  1.1440407225558021e-03  1.6893012016530084e-03  2.6428785027347173e-04  8.7224594858577808e-04  3.4258485732067390e-03  4.4314496140749129e-04  4.1390513605952969e-04  3.5345724732097799e-04  3.7050259498860026e-04  1.2367242727378313e-03  1.2716824158730273e-03  4.8300752583045408e-04  1.8916245320068745e-03  2.6100581156209227e-03  3.1287039852134313e-03  2.1052421931736613e-03  2.1429807059421577e-03  1.3496135303448489e-03  1.6388995072200633e-03  2.7160388393928261e-03  2.0132745195180121e-04  4.2410232970785076e-03  7.4411649896608564e-04  1.1197986079297716e-03  3.1799467607276544e-03  1.2674195685782683e-03  3.4322393673467985e-03  3.4883923354263862e-03  3.2711959382797978e-03  3.2700668903918682e-03  3.2016168581103449e-03  3.1385658729924902e-03  1.7433620808292639e-03  1.4949011414045852e-03  3.4135048763445940e-03  3.8953728391406019e-03  4.0983213866879076e-03  1.6570207790671039e-03  5.3812634002987079e-04  1.9521045137325274e-04  1.8565725044115866e-04  4.0098834646740342e-03  3.6348242534857611e-03  3.9074376254214227e-03  3.9519677218158231e-03  1.5921548051008592e-03  6.4290408413107615e-04  2.4585886457087541e-03  2.9452620315153474e-04  6.4517840303071454e-04  5.1730002606772713e-04  2.9420837584441055e-03  2.9492254250037824e-03  1.6886113284502152e-03  1.7040594276736569e-03  2.3543001401778760e-03  3.3400529961728821e-03  3.4903970383782972e-03  5.9575030838264020e-04  1.9892372430066078e-04  6.7873667999356340e-04  4.9797111926280150e-04  1.0670554407683666e-03  1.0450865177624822e-03  5.4503576846751665e-04  7.2170477070002451e-04  3.1331496710381803e-03  2.8914740265544793e-03  3.5678539643060800e-03  9.0548186713624852e-04  3.9771696451102612e-03  3.2003013998991221e-03  2.6922805425063528e-04  2.5764767876950891e-03  4.0184995912693051e-04  4.2430691126587629e-03  1.8711632105006395e-04  4.2299806022598890e-03  1.6568977299296381e-04  3.8907374476875416e-03  1.7961419331996949e-04  1.6415653303422653e-03  2.3426114770142315e-04  3.0911541899146571e-04  1.8412791412134323e-04  4.1248941980157735e-03  4.1853396356203339e-03  2.0885813804734566e-04  1.9307821677608770e-04  4.0558959677143760e-03  4.5081148654862329e-04  5.9035360714502496e-04  8.3662011373308225e-04  9.9344654659214030e-04  6.3507314018478966e-04  1.0210056554609834e-03  2.7309707047487720e-03  2.9040274510104248e-03  1.2989181495054770e-03  4.7886185249423723e-04  1.1901157327946789e-03  1.4425369804376197e-03  2.5022766784167031e-04  2.3589329246198995e-03  2.6598352645187083e-03  3.2486017230102010e-03  2.8281092269925759e-03  2.8693495811380454e-03  9.8729418897204428e-04  2.5850451464408493e-03  3.0252665333924847e-03  3.1711076343050463e-03  2.3240932701391308e-03  2.5854208138662554e-03  1.9244625735585401e-03  2.4183454093757741e-04  2.5212843006469478e-03  1.2282506195298993e-03  2.2618885863399316e-03  1.9704528662532715e-03  2.5486419806505342e-03  3.1058551078089452e-03  3.4636325147205291e-03  2.9375815428382486e-03  3.6495901591002749e-03  4.0787751210408940e-04  3.9326636189306041e-03  8.4350401037857692e-04  4.0633904336615529e-03  1.0514184475916009e-03  1.2267490927047881e-03  7.6612057570422660e-04  3.9995610056282197e-03  1.6890459209093684e-03  1.6042820752478386e-03  3.1922339398128244e-03  1.8475550432464993e-03  1.5258464226974666e-03  2.4531926772294590e-03  2.5280279406892031e-03  2.0830105990590398e-04  3.4066157189158049e-03  3.2078220016208475e-03  2.4776331618315008e-03  2.4303274993030840e-03  2.8402969990782533e-03  2.0467141151197243e-03  2.7006168767186381e-03  2.6602093887528899e-03  2.1099541816671672e-03  1.1346916231723648e-03  2.2029849212104728e-03  2.8931701994428281e-04  1.5434129953609697e-03  1.2970674756355514e-03  7.6070006079807957e-04  3.5197661959056638e-03  1.0282535235236856e-03  9.9916788566674548e-04  3.0556159607207395e-04  2.7635546022875233e-03  2.7568063955869882e-03  3.0444276122936595e-03  2.3299604001202432e-03  3.2061863213645082e-04  1.7838808442563329e-04  8.4398846754726560e-04  3.0135625057510196e-03  1.0763074013097707e-03  1.6978608299096515e-03  2.0931789109205191e-04  9.4664244451760765e-04  9.6265827880658212e-04  2.7403899459827824e-04  2.2294040901177032e-03  2.7899301271233265e-03  3.5803670023113548e-03  2.6496323722860586e-03  1.6232214472198269e-03  1.0273939077459558e-03  8.2205741339510684e-04  2.0631900078816770e-03  6.9710527029024575e-04  3.1438525435123466e-03  9.3051883239553463e-04  2.3639068431606561e-03  2.3882683609409699e-04  2.2124121505781276e-03  2.7377885413821797e-03  2.3094574718063726e-03  1.7097617522887963e-03  8.9686646099222959e-04  2.4396994382164285e-03  2.4538522441617241e-03  1.8305066674735358e-03  7.8854345571711807e-04  2.7146440926671699e-03  1.6503780356038258e-04  1.6720232187114928e-04  1.3745178782922371e-03  1.1594453199388790e-03  3.0900886972196114e-03  3.4642512851452249e-03  4.1201100995216823e-03  2.9615370588655958e-03  1.8371168621129092e-04  4.2891643225795714e-03  3.7474114585414053e-03  1.3154494526952908e-03  3.0194257229910291e-03  3.2512050003315803e-03  4.3603755458738111e-03  8.0031175976257084e-04  2.8189023244624034e-03  3.7412295607420322e-03  4.1022867323035244e-04  3.6159713679572636e-03  1.9065176883065860e-04  1.1324344488046637e-03  3.4785241175017095e-03  9.7697983056021240e-04  2.3494164268434035e-03  1.2792136725082736e-03  2.4533406350664175e-03  1.9880696329132854e-03  2.8977805744916465e-03  3.2912163400799675e-04  1.6489973987848479e-03  1.8823367115999149e-03  1.3745490982004160e-03  2.4483874780098888e-03  1.6904961624647735e-03  1.1402983815273510e-03  2.6171102596852839e-03  2.2572688806621016e-03  6.1730817388283826e-04  4.3584472087460262e-03  6.2513641854153000e-03  2.2292404538625165e-03  3.1645656320965360e-03  2.0850636152722432e-03  2.1937402978996793e-03  2.6312077703077434e-03  2.1529326916219947e-03  7.5690856731514358e-04  2.6840582164751685e-03  3.3618784591518165e-04  3.9502323021654102e-04  3.4778760615172787e-03  1.9445260754654534e-03  1.9874870127597191e-03  2.6507463608114214e-03  2.4457925962235042e-03  3.7372641381507401e-03  5.8087955589817164e-04  1.8732318508253420e-03  3.0047684585989202e-03  2.9125146024591231e-03  3.3434526970233473e-03  3.7695889187102415e-03  1.3957940017046983e-03  5.6924958367710514e-03  2.8432252892282672e-03  2.5920562679657010e-03  3.7731304329439979e-03  3.3177630593768733e-03  3.9489454132850569e-03  9.8644287353437019e-04  2.8712208713405673e-03  3.2659966686719500e-03  3.2614736862717272e-04  8.5365308868080815e-04  2.6895763912781821e-03  4.9760102400408384e-04  2.4191027465724417e-03  2.5316136992368176e-04  1.4025398183413107e-03  2.7217496073308639e-03  2.3480996443702335e-04  1.0136848657666593e-03  7.0731287276111043e-04  2.3376663123286117e-04  2.7177449572470310e-03  2.8748662700313625e-03  2.4585564146017672e-03  2.1961260057807128e-03  2.3783874490185559e-03  4.1680867813984066e-03  2.0860814156279175e-03  2.5762225326171266e-03  1.3333585343854679e-03  6.7249626573100824e-04  9.0436511423712005e-04  9.2406902747403977e-04  1.1851381396060783e-03  1.8484054428248133e-03  1.1805793420114983e-03  9.1845341591757649e-04  2.2510876645496727e-04  1.8039697783536672e-03  3.2531144286638406e-03  3.2109340545052006e-03  3.3964097223559034e-03  3.2030950440145537e-03  4.1975507750806312e-03  4.1435823161143481e-03  7.9711511659479950e-04  1.8599135297203844e-04  2.0637508061099977e-04  1.6765452249880246e-04  3.0640709330486127e-03  1.8858551219806904e-04  6.6604322734575827e-04  4.2347527584539017e-03  1.2273926978304481e-03  1.6788841110564406e-03  3.2855246641741442e-04  4.0373182944057433e-04  2.8619979996916045e-03  2.9482058094745770e-03  2.8999785944411969e-03  1.2661673355238265e-03  6.4240841576876709e-04  2.9543424353175316e-03  5.6409482622773359e-04  2.6580091066864138e-03  2.4078175914984818e-04  2.1015170354852521e-04  1.4608000392260596e-03  2.0116729502356670e-03  3.7089457551762301e-03  2.1422347841860861e-03  2.5027149398200400e-03  2.1861139510577043e-03  3.0197962987451275e-03  7.6326414983384134e-04  1.5659757147280223e-03  1.8373251927695480e-03  4.1401212446514389e-03  2.8285248250083366e-03  1.0450093938911857e-03  9.9410053363390848e-04  4.1999018851941782e-03  6.9814412727151770e-04  2.8382443120937950e-03  1.6791144837116103e-03  1.3212944694621334e-03  3.4182231188270777e-03  2.7904295855396325e-03  1.3084415412810959e-03  2.0092349826259900e-04  1.4861647355385815e-03  1.8784957492627800e-04  3.0380159272338507e-03  1.9157281608475855e-03  3.6062373997475957e-03  2.1167224928309459e-03  1.0022333376175