<?xml version="1.0"?>
<VTKFile type="UnstructuredGrid"  version="0.1"  >
<UnstructuredGrid>
<Piece  NumberOfPoints="2446" NumberOfCells="4585">
<Points>
<DataArray  type="Float64"  NumberOfComponents="3"  format="ascii">0 0.41 0  0 0 0  2.2 0 0  2.2 0.41 0  0.2404508497187474 0.2293892626146237 0  0.25 0.2 0  0.2404508497187474 0.1706107373853764 0  0.2154508497187474 0.1524471741852423 0  0.1845491502812526 0.1524471741852423 0  0.1595491502812526 0.1706107373853764 0  0.15 0.2 0  0.1595491502812526 0.2293892626146237 0  0.1845491502812527 0.2475528258147577 0  0.2154508497187474 0.2475528258147577 0  1.1 0 0  1.1 0.41 0  0 0.205 0  0.55 0 0  0.55 0.41 0  0.275 0 0  0.275 0.41 0  1.65 0.41 0  1.65 0 0  0.8250000000000001 0.41 0  0.8250000000000001 0 0  1.375 0 0  1.375 0.41 0  1.925 0 0  1.925 0.41 0  1.5125 0.205 0  1.7875 0.205 0  0.6875 0.205 0  0.9625000000000001 0.205 0  1.2375 0.205 0  2.2 0.205 0  0.4687002074688797 0.2068568464730291 0  1.99375 0.2152743902439024 0  2.0625 0 0  2.0625 0.41 0  2.2 0.3075 0  0.4125 0 0  0.4125 0.41 0  1.7875 0.41 0  1.375 0.1486128048780488 0  1.5125 0 0  1.7875 0 0  1.5125 0.41 0  0.8250000000000001 0.2613871951219511 0  0.9625000000000001 0.41 0  0.9625000000000001 0 0  0.6875 0.41 0  0.6875 0 0  0.1375 0 0  0.1375 0.41 0  1.2375 0 0  1.1 0.1486128048780487 0  1.2375 0.41 0  1.65 0.1486128048780487 0  1.126715909090909 0.2793064024390244 0  1.676715909090909 0.2793064024390244 0  0.8517159090909092 0.1306935975609756 0  1.348284090909091 0.2793064024390244 0  0.34375 0.3032389320646208 0  1.894702181800738 0.1282910975492754 0  2.092797818199262 0.1282910975492754 0  1.85625 0.3075 0  0.61875 0.3075 0  0.61875 0.1025 0  0.3648540804333487 0.1240075933101478 0  0 0.3075 0  0 0.1025 0  2.099172119769978 0.25625 0  0.48125 0.09238439620688085 0  0.5781001037344399 0.2059284232365146 0  0.48125 0.3196743479159776 0  0.7265881057911006 0.3055240343720796 0  1.99375 0.08395950269330846 0  1.459960956013612 0.3075 0  1.569025960719943 0.2986889805672169 0  0.75625 0.08213100772579164 0  1.03125 0.3278689922742084 0  0.923871252904788 0.3078247185783941 0  1.959375 0.3126371951219512 0  1.749222215368287 0.1025 0  1.275777784631713 0.1025 0  2.2 0.1025 0  1.225938124459196 0.3075 0  1.550777784631713 0.1025 0  1.000777784631713 0.1025 0  1.44375 0.07430640243902442 0  1.16875 0.07430640243902437 0  1.899250267340833 0.2229966846119207 0  0.1020898364287272 0.3140258291809757 0  1.766482954545455 0.2934032012195123 0  0.3405058858996321 0.2119987970531874 0  0.7710785630958338 0.1710968191298857 0  1.046078563095834 0.2389031808701144 0  0.2 0.3400647632937836 0  1.421109702350723 0.2261157654379721 0  0.2800464974185557 0.08982544815605742 0  0.098916018031319 0.09171660955420841 0  2.13125 0 0  2.118919042110979 0.3422084711244843 0  1.30625 0.41 0  0.89375 0 0  1.597888256393107 0.2173787389261347 0  0.20625 0 0  1.829299675393195 0.07400700849299596 0  1.71875 0.41 0  1.16875 0.41 0  2.038220665644273 0.332420740103091 0  0.34375 0 0  0.417496017710808 0.2696595573092803 0  0.2 0.07687845740457822 0  0.9295982307099278 0.1343158415898188 0  0.07390688010811153 0.1697064032433452 0  0.5238366813727013 0.2578302467013575 0  0.05452951551825875 0.25625 0  0.5229630068078351 0.1548816096928243 0  1.452769549894695 0.1548122580621249 0  1.369219062229598 0.07430640243902442 0  1.30625 0 0  0.8504409521244898 0.3356935975609756 0  0.8821881244591965 0.205 0  1.720943423819132 0.1714577452753128 0  1.157188124459196 0.205 0  1.094219062229598 0.07430640243902437 0  1.03125 0 0  1.304056576180868 0.1714577452753128 0  1.67579304192913 0.07430640243902437 0  0.2751941921308361 0.3346083473122598 0  1.209670467133757 0.1362100266964769 0  1.025335513626278 0.1700681449722324 0  0.7562500000000001 0.41 0  1.58125 0 0  0.7567170593862014 0.2409196493502535 0  0.6926714215682891 0.1272249611432207 0  0.4139715849905988 0.3397932387114203 0  0.9840787304190477 0.2717749043358119 0  0.06875000000000001 0.41 0  0 0.35875 0  0.9281250000000001 0.06276726142697993 0  0.5507396469029935 0.3219409231578227 0  0.5504468037989405 0.09136885600634273 0  1.58125 0.41 0  1.631724228912893 0.3381867502687533 0  1.825608881788174 0.14499488549201 0  1.85625 0 0  1.44375 0 0  1.44375 0.41 0  1.85625 0.41 0  2.13125 0.41 0  0.7562500000000001 0 0  0.89375 0.41 0  0.4812500000000001 0 0  0.34375 0.41 0  0.4812500000000001 0.41 0  0.20625 0.41 0  0.06875000000000001 0 0  1.16875 0 0  0.61875 0 0  0.61875 0.41 0  1.03125 0.41 0  1.71875 0 0  1.99375 0 0  1.99375 0.41 0  1.340625 0.3489494290853124 0  1.134375 0.3489494290853123 0  1.700180620188976 0.3438659752031281 0  2.135782184673599 0.07126652247502523 0  1.668441847249787 0.2129203728327609 0  1.295782514339747 0.2378437748815763 0  0.8233075729931248 0.06842334294821524 0  1.409375 0.3520314716057996 0  0.403505597322782 0.182067236678212 0  0.378125 0.05794951541303489 0  0.3043468223249023 0.1518321115979534 0  2.129248544730567 0.1906135162504124 0  2.060771381434487 0.1989445750470348 0  2.013252586573865 0.1496169464686054 0  1.942766402200229 0.1734448904596831 0  1.895522487186454 0.06076163953489683 0  2.069553871656643 0.06605731020975725 0  1.274680914880868 0.3520219391081363 0  1.614713220494657 0.09473434380863296 0  0.7899021319497519 0.3149123934144827 0  0.69518737419149 0.0634051089053758 0  0.2971740475496061 0.2592172353407536 0  1.72990325744076 0.2380068107952482 0  1.356580098625191 0.2120393231351682 0  2.034370752044885 0.2668681600792073 0  1.51768709249349 0.3426260931494756 0  1.561883724969884 0.1650446847858835 0  1.197344062229598 0.2523725417393646 0  1.804085235518364 0.3468178408964637 0  1.817887819205233 0.2589243285818559 0  1.905897727272727 0.3485060975609756 0  0.6719798073392919 0.2688965171178177 0  0 0.05125 0  0.653125 0.35875 0  0.6396896119294488 0.1627615407790282 0  0.4274150154087412 0.1242548552168279 0  1.192836486056382 0.3562350748565544 0  0.8279124365364005 0.183856489168822 0  1.097485222388854 0.2083571153401724 0  1.28257088594801 0.2944411014911587 0  1.474860187679412 0.2504218616229368 0  1.406767003493824 0.2829282258560709 0  0.446875 0.04619219810344041 0  0.515625 0.04585361801037557 0  0.592043440706648 0.05125 0  1.845656689180403 0.1998310418452388 0  2.144958525570388 0.2909790873294231 0  0.6171090763650112 0.2492366900333857 0  2.2 0.15375 0  0.5145586920831158 0.3648371739579888 0  1.57794966442982 0.3540357145964566 0  0.721875 0.3633107922168974 0  0.0496154796471391 0.333125 0  0.5843750000000001 0.3662560860076676 0  0.5810878747760798 0.1474002776121195 0  1.508991196088596 0.1421783375065625 0  0.8840670607017558 0.2640994375393898 0  0.09776612425612034 0.2204896805326566 0  1.50436820029908 0.06143401634903343 0  1.223857000523521 0.0823554862453532 0  1.153316824384777 0.1289850171317837 0  2.148922302309752 0.1258841779285271 0  0.309375 0.04312325590431198 0  1.621993280276081 0.2841214267927899 0  1.550118654119087 0.2461998729100966 0  1.327182649291491 0.1216967252533594 0  1.051977450479407 0.1221382572915816 0  1.753125 0.04556020050186112 0  1.271875 0.04556020050186116 0  0.9816084133102366 0.05126138213476004 0  1.039051841454368 0.0572224914831029 0  0.9719230514536006 0.3480477870845102 0  1.94956388244759 0.1180512551534177 0  1.949997712993411 0.04965831614304109 0  1.771961817615021 0.1530278789497521 0  1.909246823951428 0.2812757146784527 0  0.2459536687882397 0.04668633953831142 0  1.948575539857022 0.2445328248721197 0  1.697271520964565 0.1233917627620729 0  0.7964897648514618 0.1211426571931604 0  1.065625 0.3689344961371042 0  1.085849084308977 0.3170853572226867 0  0.4702981435440001 0.260434880697798 0  1.577403511714593 0.05463601888079143 0  0.05622663515370135 0.05493816910862376 0  0.3267207591099919 0.3566194660323104 0  0.9003051618565143 0.3564049499960621 0  1.751571320346033 0.3651102912045228 0  0.1583785085108421 0.2994699345738728 0  0.1455283439499995 0.3542795598723423 0  2.2 0.35875 0  0.2347662494194072 0.298325008655211 0  0.1527284455616188 0.1065771775690181 0  0.1382139529076665 0.05427454456341477 0  0.8749341636311069 0.05110114999892954 0  0.643661668713109 0.05693499781019222 0  1.466879772203159 0.3611261772912453 0  1.990280163552011 0.3564754268533217 0  1.17471064520912 0.2990917256188288 0  0.5202693090594349 0.206382495511728 0  0 0.25625 0  2.2 0.25625 0  2.2 0.05125 0  0 0.15375 0  1.853978576207987 0.35875 0  0.9787513713939683 0.1487523696999336 0  0.240625 0.3722153812029779 0  1.515638456102889 0.2882700110184686 0  0.09048297387599738 0.3637717362208066 0  2.150453692751374 0.2387066338105111 0  1.323782677156475 0.04897634338873398 0  0.8074131292871642 0.3624701995505916 0  1.409375 0.03715320121951221 0  1.406484531114799 0.1087852750766809 0  1.134375 0.03715320121951218 0  1.627401732573545 0.04552157221025036 0  0.1170173172005315 0.1427610859166811 0  2.045405893604797 0.1105340662939892 0  1.255408269734577 0.1577307500159216 0  2.028125 0.03707597992059326 0  0.4743610090857199 0.1421513964721819 0  0.9354010469015898 0.250631300585664 0  0.04420832937638274 0.128125 0  0.8922386349349938 0.0992956419364831 0  0.1197849154434487 0.2663398672460083 0  1.248258025468107 0.2565907092181813 0  0.3746885856929528 0.370723531618974 0  1.203125 0.0366132337404304 0  0.5724622277005015 0.2751253816079333 0  0.3365425205162783 0.08395777655057959 0  2.072662025974815 0.2975086504196739 0  0.4581080832182547 0.3648371739579888 0  0.3874522734668214 0.2295447548840689 0  0.7827853612484443 0.04106550386289586 0  1.887722846421017 0.1760882698830035 0  1.472640588990488 0.1118278026240017 0  1.865937103925594 0.2604137786483804 0  1.463913572748262 0.2030442564990043 0  1.376426316059077 0.3186741374914345 0  0.6641993820150034 0.3141688596240831 0  0.2943117490824315 0.2130987422685822 0  0.3478153998082709 0.1666571081082676 0  0.3427990510599805 0.2575950027870776 0  0.7997118993855807 0.2216171933356366 0  
[...]
<PointData  Scalars="f_10-1"> 
<DataArray  type="Float64"  Name="f_10-1"  format="ascii">1.8476376997657095e-04  2.3125632855491283e-06  7.7737603624284095e-21  2.0565277461923868e-20  1.7910439187846417e-03  1.1793375594631001e-03  4.9931072098485503e-04  1.1465673843653607e-04  6.2156991316442541e-05  9.2477891085924018e-05  1.7354431890329841e-04  4.8961827723664037e-04  1.1868637232303376e-03  1.7838020484589089e-03  4.5788586077025078e-07  5.5566157369639106e-06  5.2463864828750025e-05  1.3730022327502640e-05  2.8624397016210204e-03  5.6200257231557963e-06  3.6012821784003096e-03  3.5540403412549204e-12  7.5332198031757459e-13  4.2050117268544227e-04  1.2790467632473605e-05  1.4653262771500641e-09  9.7013283745243930e-09  1.1974001509016510e-16  3.5601805048005999e-16  7.8136335111370120e-10  1.9187880406223024e-13  1.0232059614602167e-03  9.1026125579686534e-05  7.0760008960922931e-07  1.1999296911928388e-19  1.5894605672992885e-03  1.7479632203087711e-16  9.4627811404761101e-19  2.2638377772939894e-18  1.0295595970748575e-19  7.6654246836813171e-06  3.6368640131604472e-03  3.4656976583478819e-14  1.8346647956153746e-08  4.1718368217822770e-11  9.7782157827007550e-15  2.2083965533259477e-10  6.2512111900022641e-04  6.4105969892384610e-05  3.4271827655761163e-06  1.4555407858852765e-03  2.0330080681171115e-05  3.2386067148768267e-06  1.9416337227708903e-03  3.4620592893538668e-08  6.1167093576652302e-06  2.9502908905143025e-07  9.6120482017659072e-12  9.0130694613206708e-06  7.2788260758866291e-12  1.2615498643005714e-04  7.0450435171962116e-08  3.6098783208249490e-03  3.0762789295563886e-15  2.9170825541201018e-18  2.0238878210838820e-14  2.5350037285556920e-03  1.9089488875398492e-04  9.1723302906839940e-05  9.8984778241007512e-05  1.1260034165627325e-05  4.2771940526192469e-18  8.0489140537350293e-05  1.4195753930844944e-03  3.4379119168803022e-03  1.5131102669545778e-03  6.4115647482851620e-17  3.7568407702054687e-09  1.7861204651177478e-10  9.0999902605517984e-05  4.5759692338137253e-05  2.3068525589276079e-04  5.6687575997226703e-16  2.7995440484286698e-13  1.0522215451534824e-07  6.0295567589261949e-20  1.1762433750431391e-06  1.0631334117896386e-10  1.4725014297664381e-05  1.2577462054333768e-09  5.8315712889995345e-07  4.8534034835088767e-15  4.1791083542907781e-03  4.0678440398891707e-13  1.7776551678139140e-03  4.2811443052789675e-04  3.3147817251260751e-05  4.7064455710531606e-03  1.0039788381692168e-08  2.6293934287001924e-05  1.0399711309133192e-05  6.5346813310020237e-20  1.3127041616723994e-18  5.6069663199718438e-08  7.1616280145057324e-06  7.1124245199053476e-11  4.4987205857792096e-06  1.4552443643161105e-14  4.0505683468248761e-13  1.3757564873553283e-06  2.7126640871675786e-17  6.6689655871811641e-06  3.0923252639649896e-03  1.7206036336335810e-05  6.0253373427474097e-05  3.2551096387762539e-05  2.5625621043464534e-03  1.0899148395712550e-04  5.9692639805024328e-04  2.6737942900869069e-09  7.9146406976287806e-09  6.9745624672885148e-09  5.1732273879991888e-04  2.3994044305671478e-04  1.2907185780949033e-12  3.6465589119965517e-06  2.1998186651719468e-06  1.4197125433206206e-06  1.2353002105059083e-07  1.8374909834169491e-12  4.0987514425846446e-03  6.5940397138997661e-07  2.6427453428290736e-05  8.2804239424748185e-04  6.2220156068677584e-12  9.6022894481647986e-04  3.0257219528422811e-04  3.7095365931032534e-03  9.7771017214104446e-05  5.5722033132980689e-04  1.3060294664886098e-04  1.6818719024994550e-05  3.1044845628294630e-03  1.1723567537188561e-04  2.8669327018697405e-11  2.1787660464692235e-11  3.6731317209018417e-14  1.0705660189874427e-15  2.3506534583804696e-10  1.6146649909830868e-09  3.9992731499424773e-15  1.8857653824146582e-19  1.7709606146950554e-05  1.7442107816263242e-04  9.4956381996038561e-06  3.7205789033289251e-03  3.3528201954987646e-03  3.0887061593183381e-03  2.4944553825591181e-06  1.4174979940283573e-07  1.8513627134364693e-05  2.1880993144609189e-03  2.0110258355198968e-05  9.2397071003916404e-14  9.5952844829544376e-18  3.1311993849530287e-17  6.3474936436183531e-08  6.2631040999599314e-06  2.4395826455848361e-12  3.1704613232408268e-19  8.3687267502446816e-12  2.3102705325209236e-07  4.6664846908735421e-05  1.0694907911279734e-08  9.2990227471706022e-04  1.4251574557101707e-05  2.2976281031539589e-04  1.1942981018432632e-18  1.4811017638137620e-17  6.0740077472895060e-17  8.6352592471052867e-16  1.3370108274120983e-15  3.2375102029958207e-18  3.0182690468488775e-07  1.5219477383908771e-11  9.5524283666629075e-04  6.8752400101589360e-05  2.6317644606293762e-03  1.3539721502061446e-12  4.7727871837971267e-08  4.4030794371293244e-17  6.0396046880687952e-10  1.4779365728617489e-10  2.1115064605767551e-06  8.2379615848030533e-14  7.6714801952932787e-14  2.5535425824732643e-15  1.8150236882216344e-03  4.2587313620563722e-06  2.1818472470224760e-03  6.6334308697863810e-04  1.5605936946523256e-04  1.7843632191048876e-06  3.2767165036773051e-04  1.1337014910525792e-05  3.3941538763169690e-07  2.6244221297884147e-09  1.6185262509393799e-08  1.4188398627305700e-05  2.4326113994941179e-05  4.1946276399248684e-05  2.6496771047457896e-14  7.4066871438994964e-19  1.9761127727708507e-03  8.9722973013955691e-20  3.3329256047733929e-03  8.9757642397224672e-11  1.4371887096093676e-03  3.7652924767554979e-04  2.8093019552370038e-03  5.3066057471625719e-04  5.2501726718967801e-10  3.4498435173724469e-04  1.6624509673970769e-04  2.0207557783665296e-10  2.3224613216884297e-07  1.8164986786661185e-06  3.7136085438958211e-19  9.6127752517860430e-06  3.8660062230880031e-11  3.1430976898327988e-10  4.2007930777716726e-08  9.4886995281151409e-06  9.9017375811621401e-14  4.2726765091836984e-08  7.1080596967074259e-06  3.6950006219136172e-06  1.0359993045594692e-04  4.2991850838970234e-16  1.6506078487288773e-16  2.2230332516928990e-13  3.5030297175350283e-15  9.6259324288955848e-06  8.9720664394168655e-16  1.7816315600543660e-12  1.6474305565641876e-04  1.8584380965264994e-05  1.8373620088538207e-05  2.7919921679716371e-03  2.3821689615734227e-11  4.7151417103438470e-06  3.8825784146373872e-03  2.6254398235620767e-04  3.4204436140901463e-13  5.0307641805929322e-03  4.0191574556770341e-03  6.1423149585684779e-20  3.4492282934867604e-03  2.0585981835569305e-05  6.7666069026989178e-06  2.1460099933325108e-05  5.6023353909019023e-05  2.0348792179152238e-09  1.1943671006049025e-16  3.5018479908010733e-06  1.5333352214813023e-03  9.1515412434858815e-05  1.2497825797614383e-19  2.8133754593751133e-20  2.6177229907062758e-05  1.3109732797862523e-14  3.9727616255312054e-05  3.8123384943061778e-03  8.3485416234763804e-10  1.2539992075921984e-03  6.3459057239815908e-19  1.4664168197575288e-08  7.1008592909592807e-04  1.4208163276277908e-09  5.2825227058916701e-09  5.1802056698597040e-07  4.6527737945644814e-12  2.6610687149736347e-05  1.3822985387777758e-17  3.1865784878736710e-07  8.0758944166770883e-18  3.7669836227670285e-04  1.7665966279981226e-04  1.7628921572777801e-05  4.9824597906731452e-05  3.0967403060269969e-03  7.1920307425820419e-07  3.7779406821913594e-03  1.4622597260242591e-07  2.5898331906511864e-03  2.4379604463136349e-05  1.0232770073504572e-17  3.5917777309835931e-03  2.2745108905517660e-03  3.1058927107455896e-05  5.8506676270915626e-15  9.8630961934566585e-10  1.5872563441070013e-14  2.8761315751512510e-09  3.2318327601313778e-08  2.1456968340161182e-03  1.6702912789219044e-03  4.1681103701918552e-04  2.9061143846446703e-03  6.0429283149148057e-04  1.7146835493099437e-12  3.2920530569757051e-13  5.1594939487967889e-19  5.4365558731033707e-04  2.4403898052453082e-04  6.3155854423406729e-05  5.0134602760144739e-05  1.6869431753413990e-05  1.5645524133281022e-08  1.1410191062157707e-04  8.7673470741019632e-18  3.6614221694183745e-11  1.2709079472108572e-03  1.2994372969510530e-03  8.8092552476239495e-14  5.5151238897052600e-05  2.1233876256845931e-16  2.8400205169071284e-19  6.6051700890974130e-19  4.8934884756300325e-18  3.7599689092342200e-06  3.6369709652540592e-05  1.0122822033118428e-11  7.7238154251501199e-14  1.1169298352230533e-16  3.8600405369836568e-06  2.8916689772738930e-08  1.3581232833391097e-06  1.0209062017723790e-10  2.2771197099609088e-11  8.0637704291956704e-11  2.7261738327117972e-04  2.5510809453794867e-13  3.9931042176136170e-13  3.7012516263587108e-05  4.7103364521014169e-05  6.5407033538476738e-20  1.6253226896161098e-19  2.5656357860854125e-04  1.5424229773937568e-04  1.0106940168945529e-03  1.2004801876650586e-04  1.4613043409677441e-04  2.5482216447267316e-11  2.3312516922157129e-14  5.3883147636844010e-15  1.6872404612776869e-11  4.2892939842125815e-16  1.8724942075739714e-03  3.8644252760267616e-05  1.2193774165104049e-14  1.3367293195893981e-06  9.5540083581968561e-13  5.4273442227553761e-12  1.8881508847020066e-05  3.2230334765343587e-05  2.6223211104057279e-03  1.3397538751076783e-17  1.1034799666797338e-04  2.4517559639749078e-10  6.2152754640072766e-07  3.8547419298178443e-18  3.5037412917988149e-10  6.3889509312741923e-06  1.4351083222912401e-05  7.8119187816803046e-04  1.0073482233331944e-10  9.2916226418262898e-04  3.5658519012247889e-03  3.4831538471662730e-03  7.3763740951073692e-04  1.6027401948860234e-06  4.0293337168012452e-04  7.5975042745089014e-06  3.8690309290222206e-06  4.5433826575753342e-05  3.2440033471818692e-19  1.3014058109389709e-07  3.7601447643516517e-17  5.2292426462746797e-04  1.1597434930458209e-15  3.2255393541022424e-15  3.6278007118425957e-16  5.9387215385590441e-16  3.1018656225855547e-10  7.1121962737551637e-13  1.1841912906549781e-12  5.7592064861031731e-12  2.3566076027721479e-06  3.6079796203924470e-04  3.5607845438186290e-03  1.8784704176415980e-04  1.6898798035441699e-17  6.7864721433637586e-09  6.1536009963319527e-04  8.7379277758823447e-05  1.5003568557616469e-03  2.4871602025680948e-05  4.0426833108678922e-03  7.8817826845186292e-14  1.4557746636806028e-04  1.3990914601921941e-04  1.8747645033958360e-03  1.2036288082174967e-09  3.0601204439672630e-05  4.5210799860380765e-06  6.1230289823747312e-05  1.4178603884848289e-17  6.1661176383204222e-09  3.8271481674963040e-03  3.5243449802751692e-03  9.1162450974397109e-10  3.6904927059138930e-03  9.0773691336124148e-04  9.7631180757106546e-04  2.3574670522089175e-04  9.1767851977583826e-04  7.1190332730993014e-05  3.0850087523110444e-03  1.9596536349303609e-03  3.5990194609311475e-04  7.0295940454725994e-05  5.7426088977830312e-11  6.6993116124804257e-13  2.8543699845491282e-07  6.6457544189965894e-13  1.0944300175480673e-07  1.3810590542285010e-08  4.6599379254854199e-09  4.5007184852312722e-06  3.5704854463743142e-12  4.8141172100536659e-08  2.4772316329916243e-16  2.0048485011829512e-05  3.8203461679049175e-03  5.9523546548330275e-07  2.7081586297115097e-07  9.8669764034595262e-06  4.3752356491464518e-03  6.2593521461893270e-11  8.3005333412200278e-12  3.0880062113725778e-03  3.8323601461762074e-05  2.3978509797372019e-03  6.9518433453987739e-06  2.1649339590445607e-03  1.5135527126066893e-11  6.2670942264682173e-11  2.5923802840811292e-10  3.4599219985273635e-04  3.4034079254119004e-15  1.3121674112630082e-03  1.5591311321556925e-17  5.5888466404648698e-17  3.7308172947088457e-08  6.5624425377100979e-04  2.8074085506306840e-18  2.0731002306280838e-18  3.5742503951314107e-19  2.8385382702672476e-13  7.6831932106351049e-11  3.4850232225528676e-05  2.1030390342095815e-05  4.9807358603031336e-05  3.2416950486926236e-05  3.0102286184611491e-09  1.2403294678419732e-05  7.0757925258231568e-06  1.1089385153210894e-05  9.7814365794250503e-06  1.9543329875440964e-05  1.5204112268153560e-19  8.7305210979813755e-19  3.0707601367211788e-06  6.2734753546044566e-16  1.0892654663913166e-18  1.2261171503520263e-03  1.5775988842665157e-06  1.5426666527408790e-04  1.0854757645529354e-14  9.7033422952950796e-14  2.0211436121314518e-03  1.1125986357557300e-05  3.6797713786883065e-03  3.4067520350239660e-05  7.9665170815205913e-04  1.4471408551925850e-04  2.7558502432395725e-04  2.7393032767453151e-06  2.8400236085757228e-06  1.0465378598307223e-07  2.2545814944491340e-08  2.0668597141817087e-08  6.6992231464834839e-06  5.9629629998589657e-09  1.2270943603290261e-18  6.2068299207609169e-07  6.0097996305420232e-04  3.1225798487765273e-03  1.3051230209891926e-03  2.7028718406442334e-04  1.0544714595940265e-05  7.0381382789279159e-06  3.3296070506797378e-03  2.9936284900928499e-03  2.8623157616429764e-03  2.5651430998508526e-03  1.6676462741160680e-14  6.7978033404598101e-08  1.0769186193501877e-04  7.4407822685793005e-05  3.3064621783334032e-04  2.1764214277369886e-04  1.3261690873595701e-08  1.0973164623187414e-12  1.5515801751362617e-16  4.3514152873645541e-17  5.9061189560478771e-16  1.2618828748451944e-07  6.0676426592935850e-06  2.6561491900675647e-07  1.3768607888877278e-05  3.2266957574865114e-09  8.3599381419749910e-07  1.8871972313669377e-20  2.3330534612952346e-19  2.5792091432180058e-07  6.3297365258933594e-10  6.0697913787323303e-10  1.2865711686977682e-13  1.0805928059526376e-05  3.4783700094016576e-14  1.1340715707160894e-03  3.7414143321370876e-09  1.9705858543309307e-05  5.4659142611476716e-20  5.2329361516686079e-06  3.7015923599972153e-03  8.2333949622844717e-06  3.5232308228482731e-03  2.7865583922280068e-06  3.4151986507726375e-03  4.9441257015205693e-06  1.1496707802375315e-03  1.9555489488995135e-05  1.5345820920138612e-05  6.1620665709348799e-06  2.5249237292747136e-03  3.1286544355360632e-03  1.5927744884544113e-05  1.1006648421677555e-05  1.7994934863501569e-03  2.3201854870362498e-06  6.6648817989526641e-08  2.1903134122035165e-12  3.2854839274028446e-17  1.5630294159133611e-08  2.9455441886001668e-18  1.0246792360909805e-16  8.7964484834694008e-13  4.7981028666291743e-17  6.5995493132899377e-05  2.7565192537447828e-09  1.8576637818116545e-06  3.6716864732929141e-05  9.5178167895319216e-08  1.6903370378762387e-07  3.5512536744874730e-06  4.1089765879403329e-10  1.4161807131946543e-09  4.3674776605050300e-16  2.2410240319815380e-03  5.1952194009213907e-09  4.3624334860809678e-09  3.4328197943393149e-12  5.6229361900947324e-15  2.5228138871739112e-12  2.1893341071894840e-05  1.4722804447017312e-03  2.3444960717890067e-14  9.3641253888946614e-12  1.2867431340515870e-07  1.8194863870443801e-15  6.5386087253789683e-10  7.0215615926817482e-04  2.6601457534379122e-05  6.7076303479155481e-05  6.9626001386524278e-05  3.5555600287681911e-03  7.1713281359949910e-12  2.3456672598756471e-03  2.2429686538069570e-18  2.6062252936418102e-18  7.6350125303923856e-06  1.7468048569226743e-03  3.2116981944618263e-08  1.2465349544850078e-03  6.7365927241186391e-07  1.8967463080173154e-15  2.0115299394303870e-15  1.9732022012771107e-03  5.0469614534125579e-18  1.0241265603861771e-05  2.1920647525099880e-03  1.6064793376873116e-03  2.4167671589090840e-04  3.4627579531415925e-17  4.4968283020848505e-14  2.1164489258577394e-05  3.6314094604586835e-14  3.5591411304356312e-12  3.3135083682242466e-14  1.8598035104040627e-16  3.2645320946529119e-19  6.9472926685186325e-05  7.3017963602845231e-05  8.4240988196519308e-11  1.0705520130911533e-04  1.7275606313773149e-04  3.7191429680437260e-11  5.2150714201203718e-12  4.3544973139512449e-05  1.2985369142827607e-15  2.3828266487384542e-03  8.6176590629969176e-11  1.9617223890157020e-03  7.5244186278418106e-05  4.6654097254561974e-06  4.2712130868178958e-04  3.4665418380973243e-11  3.0796083469557557e-06  3.7183285854749687e-10  1.2409262770023733e-05  2.0133798469691868e-08  3.4112063497605612e-05  2.8523262410198965e-05  1.5183399605074453e-03  4.0682710537606734e-15  1.8273533003200948e-03  8.6724955829885027e-16  6.8168835829184360e-07  8.3137635293358637e-05  1.7834958340100592e-11  9.4182988397938120e-14  3.8808524841270825e-06  2.0663156915486858e-06  6.0477541807956294e-04  7.8364736936730554e-13  2.9380106382315039e-05  5.0240743614609563e-07  1.3357988461291111e-06  3.3113669974134590e-06  8.4108591432986268e-12  5.1974007310914973e-10  1.7200778206358640e-13  4.1969440096030471e-14  4.7643759344915907e-18  1.1780891137326244e-10  1.1195763641120474e-16  2.7897808940424676e-06  3.0805830849082877e-06  2.1658647924065728e-10  1.8012273143409777e-15  2.4423927297782863e-07  3.0716319267230620e-03  3.5917767091270219e-03  2.4312981629394268e-10  5.6881335760372360e-06  3.8333895818990996e-03  3.2611543506455378e-03  1.4606103851386808e-16  2.5946291676413567e-03  3.7102233472895783e-08  3.9415311195113416e-03  1.0241410078665293e-07  1.1937613185339133e-14  1.7359740695543680e-04  6.6148122232083360e-05  3.2364721651939824e-03  8.2717600465006095e-06  1.1257811593790915e-18  1.2174642487267527e-03  8.8598119761463785e-15  1.1412107381396389e-06  1.4454213227730862e-11  1.0041895080232550e-14  1.2266540525238545e-19  1.5615383987158265e-05  8.9924796135034446e-05  8.8073986381946356e-06  6.1847257804152784e-06  2.0301456111624237e-04  1.7908795487152417e-11  9.2289546408823981e-04  9.7644996979032850e-20  5.3885630234160402e-05  1.4887508724937259e-17  7.4239772063881123e-06  3.9041205553794222e-03  5.8302591773997355e-03  5.7246341723743973e-15  3.1648814825217667e-04  2.0203884044297444e-08  4.6001917057333796e-09  2.7933775640568548e-09  1.4646678489938870e-09  5.5443667032946589e-10  1.0246955944873697e-14  1.9720555501363771e-05  7.2473625621871293e-05  7.0448557517922996e-05  6.0245543143225668e-04  3.2870218313389683e-04  3.3769832663557713e-08  1.1438166572067914e-08  1.0380378209858573e-03  1.0311285082452375e-06  9.8718472519017150e-15  1.9574646954831189e-04  1.8654858983910524e-03  2.4265187048487218e-03  1.6100970307404690e-03  7.0582700916757172e-20  5.2861244123707388e-03  6.9452090607625478e-07  3.6806874174425018e-07  5.2837646486604605e-04  1.6741491146081135e-07  1.0980340661183310e-03  2.8765401642461237e-13  4.8022180071729246e-04  1.0642044647591301e-05  7.9739658645648130e-05  5.5219444788358622e-04  3.5780279145293594e-17  1.8564089315488011e-06  5.1835117924355913e-04  4.5769032371786101e-05  1.1959136831626609e-09  2.0708163713280900e-11  3.3483515262063456e-05  2.6465701769302566e-04  1.5945173526238761e-04  3.4026990250467314e-05  2.3727472660755112e-03  1.1280406109165960e-13  8.3954724289400364e-19  1.3413472641496056e-18  2.5662732626542847e-19  3.1046204743485940e-03  1.2357234577493492e-14  1.8917680806436917e-16  1.4472848231779739e-05  1.5961381277715288e-08  9.7856317171797357e-14  3.0279635227777150e-14  3.5998951582899728e-11  8.1482211181616547e-04  1.1036649373350995e-06  1.0216070377721592e-06  1.7908646898854405e-05  6.4999541545346508e-08  1.1761684734304288e-06  3.1227375144760652e-05  2.3643109854904423e-05  7.7965852979207612e-04  3.4341574773404915e-03  3.5060539226939133e-03  5.1638477540002151e-08  5.9415775466072596e-06  1.0771271514749019e-05  3.1244646827415048e-06  2.5869536192456508e-03  6.9843166513744001e-06  1.0527946152638594e-06  3.7560334193726215e-03  3.9967090197720920e-04  9.9659669634511788e-20  3.2990996379825503e-05  6.9364300837324963e-05  1.2789493546668788e-10  3.9042068450380741e-11  2.5526200076425964e-03  1.1014772955499917e-15  2.1339973081753178e-04  2.5498855301291810e-03  1.0649300577083456e-04  2.2164581689273957e-03  1.6540454824514376e-05  1.0182201891181199e-05  7.5304017289432649e-16  5.7308383326619661e-18  2.8628542839598211e-03  5.3834425655948625e-10  2.1206252874716407e-10  1.4419325836498533e-10  6.4082720779146759e-08  3.4459348906610774e-07  2.8813103351397552e-11  7.0893224914598709e-14  2.8948629847923000e-03  1.5820287726107591e-13  4.7573902747752032e-16  1.5562979061339427e-16  3.7513919569890602e-03  4.1006691395077449e-04  9.6126815576364622e-13  4.1896945215622099e-04  2.6778581923289967e-13  1.2729318957681393e-06  8.4905696686591092e-09  9.8935043011056306e-05  1.4992257110237311e-05  6.7546761978525662e-15  7.1381212433543964e-06  5.1058698259935631e-07  1.4132820432251915e-03  3.1607654633176610e-03  4.5451815495623119e-12  3.7908259010220