<?xml version="1.0"?>
<VTKFile type="UnstructuredGrid"  version="0.1"  >
<UnstructuredGrid>
<Piece  NumberOfPoints="2446" NumberOfCells="4585">
<Points>
<DataArray  type="Float64"  NumberOfComponents="3"  format="ascii">0 0.41 0  0 0 0  2.2 0 0  2.2 0.41 0  0.2404508497187474 0.2293892626146237 0  0.25 0.2 0  0.2404508497187474 0.1706107373853764 0  0.2154508497187474 0.1524471741852423 0  0.1845491502812526 0.1524471741852423 0  0.1595491502812526 0.1706107373853764 0  0.15 0.2 0  0.1595491502812526 0.2293892626146237 0  0.1845491502812527 0.2475528258147577 0  0.2154508497187474 0.2475528258147577 0  1.1 0 0  1.1 0.41 0  0 0.205 0  0.55 0 0  0.55 0.41 0  0.275 0 0  0.275 0.41 0  1.65 0.41 0  1.65 0 0  0.8250000000000001 0.41 0  0.8250000000000001 0 0  1.375 0 0  1.375 0.41 0  1.925 0 0  1.925 0.41 0  1.5125 0.205 0  1.7875 0.205 0  0.6875 0.205 0  0.9625000000000001 0.205 0  1.2375 0.205 0  2.2 0.205 0  0.4687002074688797 0.2068568464730291 0  1.99375 0.2152743902439024 0  2.0625 0 0  2.0625 0.41 0  2.2 0.3075 0  0.4125 0 0  0.4125 0.41 0  1.7875 0.41 0  1.375 0.1486128048780488 0  1.5125 0 0  1.7875 0 0  1.5125 0.41 0  0.8250000000000001 0.2613871951219511 0  0.9625000000000001 0.41 0  0.9625000000000001 0 0  0.6875 0.41 0  0.6875 0 0  0.1375 0 0  0.1375 0.41 0  1.2375 0 0  1.1 0.1486128048780487 0  1.2375 0.41 0  1.65 0.1486128048780487 0  1.126715909090909 0.2793064024390244 0  1.676715909090909 0.2793064024390244 0  0.8517159090909092 0.1306935975609756 0  1.348284090909091 0.2793064024390244 0  0.34375 0.3032389320646208 0  1.894702181800738 0.1282910975492754 0  2.092797818199262 0.1282910975492754 0  1.85625 0.3075 0  0.61875 0.3075 0  0.61875 0.1025 0  0.3648540804333487 0.1240075933101478 0  0 0.3075 0  0 0.1025 0  2.099172119769978 0.25625 0  0.48125 0.09238439620688085 0  0.5781001037344399 0.2059284232365146 0  0.48125 0.3196743479159776 0  0.7265881057911006 0.3055240343720796 0  1.99375 0.08395950269330846 0  1.459960956013612 0.3075 0  1.569025960719943 0.2986889805672169 0  0.75625 0.08213100772579164 0  1.03125 0.3278689922742084 0  0.923871252904788 0.3078247185783941 0  1.959375 0.3126371951219512 0  1.749222215368287 0.1025 0  1.275777784631713 0.1025 0  2.2 0.1025 0  1.225938124459196 0.3075 0  1.550777784631713 0.1025 0  1.000777784631713 0.1025 0  1.44375 0.07430640243902442 0  1.16875 0.07430640243902437 0  1.899250267340833 0.2229966846119207 0  0.1020898364287272 0.3140258291809757 0  1.766482954545455 0.2934032012195123 0  0.3405058858996321 0.2119987970531874 0  0.7710785630958338 0.1710968191298857 0  1.046078563095834 0.2389031808701144 0  0.2 0.3400647632937836 0  1.421109702350723 0.2261157654379721 0  0.2800464974185557 0.08982544815605742 0  0.098916018031319 0.09171660955420841 0  2.13125 0 0  2.118919042110979 0.3422084711244843 0  1.30625 0.41 0  0.89375 0 0  1.597888256393107 0.2173787389261347 0  0.20625 0 0  1.829299675393195 0.07400700849299596 0  1.71875 0.41 0  1.16875 0.41 0  2.038220665644273 0.332420740103091 0  0.34375 0 0  0.417496017710808 0.2696595573092803 0  0.2 0.07687845740457822 0  0.9295982307099278 0.1343158415898188 0  0.07390688010811153 0.1697064032433452 0  0.5238366813727013 0.2578302467013575 0  0.05452951551825875 0.25625 0  0.5229630068078351 0.1548816096928243 0  1.452769549894695 0.1548122580621249 0  1.369219062229598 0.07430640243902442 0  1.30625 0 0  0.8504409521244898 0.3356935975609756 0  0.8821881244591965 0.205 0  1.720943423819132 0.1714577452753128 0  1.157188124459196 0.205 0  1.094219062229598 0.07430640243902437 0  1.03125 0 0  1.304056576180868 0.1714577452753128 0  1.67579304192913 0.07430640243902437 0  0.2751941921308361 0.3346083473122598 0  1.209670467133757 0.1362100266964769 0  1.025335513626278 0.1700681449722324 0  0.7562500000000001 0.41 0  1.58125 0 0  0.7567170593862014 0.2409196493502535 0  0.6926714215682891 0.1272249611432207 0  0.4139715849905988 0.3397932387114203 0  0.9840787304190477 0.2717749043358119 0  0.06875000000000001 0.41 0  0 0.35875 0  0.9281250000000001 0.06276726142697993 0  0.5507396469029935 0.3219409231578227 0  0.5504468037989405 0.09136885600634273 0  1.58125 0.41 0  1.631724228912893 0.3381867502687533 0  1.825608881788174 0.14499488549201 0  1.85625 0 0  1.44375 0 0  1.44375 0.41 0  1.85625 0.41 0  2.13125 0.41 0  0.7562500000000001 0 0  0.89375 0.41 0  0.4812500000000001 0 0  0.34375 0.41 0  0.4812500000000001 0.41 0  0.20625 0.41 0  0.06875000000000001 0 0  1.16875 0 0  0.61875 0 0  0.61875 0.41 0  1.03125 0.41 0  1.71875 0 0  1.99375 0 0  1.99375 0.41 0  1.340625 0.3489494290853124 0  1.134375 0.3489494290853123 0  1.700180620188976 0.3438659752031281 0  2.135782184673599 0.07126652247502523 0  1.668441847249787 0.2129203728327609 0  1.295782514339747 0.2378437748815763 0  0.8233075729931248 0.06842334294821524 0  1.409375 0.3520314716057996 0  0.403505597322782 0.182067236678212 0  0.378125 0.05794951541303489 0  0.3043468223249023 0.1518321115979534 0  2.129248544730567 0.1906135162504124 0  2.060771381434487 0.1989445750470348 0  2.013252586573865 0.1496169464686054 0  1.942766402200229 0.1734448904596831 0  1.895522487186454 0.06076163953489683 0  2.069553871656643 0.06605731020975725 0  1.274680914880868 0.3520219391081363 0  1.614713220494657 0.09473434380863296 0  0.7899021319497519 0.3149123934144827 0  0.69518737419149 0.0634051089053758 0  0.2971740475496061 0.2592172353407536 0  1.72990325744076 0.2380068107952482 0  1.356580098625191 0.2120393231351682 0  2.034370752044885 0.2668681600792073 0  1.51768709249349 0.3426260931494756 0  1.561883724969884 0.1650446847858835 0  1.197344062229598 0.2523725417393646 0  1.804085235518364 0.3468178408964637 0  1.817887819205233 0.2589243285818559 0  1.905897727272727 0.3485060975609756 0  0.6719798073392919 0.2688965171178177 0  0 0.05125 0  0.653125 0.35875 0  0.6396896119294488 0.1627615407790282 0  0.4274150154087412 0.1242548552168279 0  1.192836486056382 0.3562350748565544 0  0.8279124365364005 0.183856489168822 0  1.097485222388854 0.2083571153401724 0  1.28257088594801 0.2944411014911587 0  1.474860187679412 0.2504218616229368 0  1.406767003493824 0.2829282258560709 0  0.446875 0.04619219810344041 0  0.515625 0.04585361801037557 0  0.592043440706648 0.05125 0  1.845656689180403 0.1998310418452388 0  2.144958525570388 0.2909790873294231 0  0.6171090763650112 0.2492366900333857 0  2.2 0.15375 0  0.5145586920831158 0.3648371739579888 0  1.57794966442982 0.3540357145964566 0  0.721875 0.3633107922168974 0  0.0496154796471391 0.333125 0  0.5843750000000001 0.3662560860076676 0  0.5810878747760798 0.1474002776121195 0  1.508991196088596 0.1421783375065625 0  0.8840670607017558 0.2640994375393898 0  0.09776612425612034 0.2204896805326566 0  1.50436820029908 0.06143401634903343 0  1.223857000523521 0.0823554862453532 0  1.153316824384777 0.1289850171317837 0  2.148922302309752 0.1258841779285271 0  0.309375 0.04312325590431198 0  1.621993280276081 0.2841214267927899 0  1.550118654119087 0.2461998729100966 0  1.327182649291491 0.1216967252533594 0  1.051977450479407 0.1221382572915816 0  1.753125 0.04556020050186112 0  1.271875 0.04556020050186116 0  0.9816084133102366 0.05126138213476004 0  1.039051841454368 0.0572224914831029 0  0.9719230514536006 0.3480477870845102 0  1.94956388244759 0.1180512551534177 0  1.949997712993411 0.04965831614304109 0  1.771961817615021 0.1530278789497521 0  1.909246823951428 0.2812757146784527 0  0.2459536687882397 0.04668633953831142 0  1.948575539857022 0.2445328248721197 0  1.697271520964565 0.1233917627620729 0  0.7964897648514618 0.1211426571931604 0  1.065625 0.3689344961371042 0  1.085849084308977 0.3170853572226867 0  0.4702981435440001 0.260434880697798 0  1.577403511714593 0.05463601888079143 0  0.05622663515370135 0.05493816910862376 0  0.3267207591099919 0.3566194660323104 0  0.9003051618565143 0.3564049499960621 0  1.751571320346033 0.3651102912045228 0  0.1583785085108421 0.2994699345738728 0  0.1455283439499995 0.3542795598723423 0  2.2 0.35875 0  0.2347662494194072 0.298325008655211 0  0.1527284455616188 0.1065771775690181 0  0.1382139529076665 0.05427454456341477 0  0.8749341636311069 0.05110114999892954 0  0.643661668713109 0.05693499781019222 0  1.466879772203159 0.3611261772912453 0  1.990280163552011 0.3564754268533217 0  1.17471064520912 0.2990917256188288 0  0.5202693090594349 0.206382495511728 0  0 0.25625 0  2.2 0.25625 0  2.2 0.05125 0  0 0.15375 0  1.853978576207987 0.35875 0  0.9787513713939683 0.1487523696999336 0  0.240625 0.3722153812029779 0  1.515638456102889 0.2882700110184686 0  0.09048297387599738 0.3637717362208066 0  2.150453692751374 0.2387066338105111 0  1.323782677156475 0.04897634338873398 0  0.8074131292871642 0.3624701995505916 0  1.409375 0.03715320121951221 0  1.406484531114799 0.1087852750766809 0  1.134375 0.03715320121951218 0  1.627401732573545 0.04552157221025036 0  0.1170173172005315 0.1427610859166811 0  2.045405893604797 0.1105340662939892 0  1.255408269734577 0.1577307500159216 0  2.028125 0.03707597992059326 0  0.4743610090857199 0.1421513964721819 0  0.9354010469015898 0.250631300585664 0  0.04420832937638274 0.128125 0  0.8922386349349938 0.0992956419364831 0  0.1197849154434487 0.2663398672460083 0  1.248258025468107 0.2565907092181813 0  0.3746885856929528 0.370723531618974 0  1.203125 0.0366132337404304 0  0.5724622277005015 0.2751253816079333 0  0.3365425205162783 0.08395777655057959 0  2.072662025974815 0.2975086504196739 0  0.4581080832182547 0.3648371739579888 0  0.3874522734668214 0.2295447548840689 0  0.7827853612484443 0.04106550386289586 0  1.887722846421017 0.1760882698830035 0  1.472640588990488 0.1118278026240017 0  1.865937103925594 0.2604137786483804 0  1.463913572748262 0.2030442564990043 0  1.376426316059077 0.3186741374914345 0  0.6641993820150034 0.3141688596240831 0  0.2943117490824315 0.2130987422685822 0  0.3478153998082709 0.1666571081082676 0  0.3427990510599805 0.2575950027870776 0  0.7997118993855807 0.2216171933356366 0  
[...]
<PointData  Scalars="f_10-1"> 
<DataArray  type="Float64"  Name="f_10-1"  format="ascii">5.3015916700079849e-04  7.7843385641516272e-05  5.0759181479608233e-04  1.0889321773568049e-03  2.0347081781308296e-03  1.4230641666302590e-03  6.9992542068612169e-04  2.7690451070805160e-04  2.2376976332370683e-04  2.6412821731958223e-04  3.5660945437651528e-04  6.8524854496591957e-04  1.3918575018489825e-03  2.0011589494929663e-03  4.3755356811748711e-04  3.3832881204615291e-03  2.4176971693101008e-04  1.1334063176033588e-04  4.0115920282987770e-03  9.4558747626801679e-05  3.9315081196172833e-03  2.7202991145996217e-03  7.5452307419734857e-04  3.7092564841650359e-03  2.4724499743803590e-04  6.1872208319174640e-04  3.0811526866888692e-03  7.4889394183098737e-04  2.0353708505716286e-03  1.8161876008482747e-03  1.7197817027175516e-03  1.8762753272416560e-03  1.8740813511052069e-03  1.8515889732163800e-03  1.0778810152020284e-03  1.8803924208987957e-03  1.5457822821481890e-03  6.4791029831424984e-04  1.5399925607309315e-03  1.2544053115152796e-03  9.8496753159564392e-05  4.0963930065414673e-03  2.4350816885133661e-03  1.2912531594278655e-03  6.9655016128301211e-04  7.7894358582832946e-04  2.9209978010840227e-03  2.7247489999379288e-03  3.5437507964473751e-03  3.4045251346117368e-04  3.8715324138618602e-03  1.6520318063259181e-04  8.3936430851638686e-05  2.2781195676707298e-03  5.3292763559526738e-04  1.2103170040363034e-03  3.2292741068549818e-03  1.3339991030522130e-03  2.7148560509507326e-03  2.3314631324540245e-03  8.8867054654070011e-04  2.5669588482692121e-03  3.8768662212101714e-03  1.1606673309654618e-03  9.7379664797808024e-04  2.2198060812243024e-03  3.5387160656588810e-03  4.1103967780817171e-04  2.3025392409602044e-04  3.8856686440228930e-04  1.1969183295296591e-04  1.4719906294398143e-03  2.0869900781582569e-04  1.8822356035390223e-03  3.8555316049290202e-03  3.3703629048172177e-03  8.9704608822376876e-04  2.6974389059589098e-03  2.5522172147404835e-03  4.0245023461771051e-04  3.2216351822139553e-03  3.1683901639833283e-03  1.9926303842546875e-03  1.0482583545938535e-03  8.8787261080679007e-04  7.3407242168761300e-04  2.8868106225010113e-03  1.0039255984969472e-03  7.3057393791743435e-04  8.0870701654074814e-04  6.5480579405728418e-04  1.7322923901277841e-03  4.4655711324763135e-03  2.3099089791241770e-03  2.0252223257001228e-03  1.3492753416663595e-03  2.3010766420790613e-03  4.9892487464007068e-03  2.0369882958638213e-03  1.4994615974174016e-04  1.1746827532833974e-04  5.6982596112281961e-04  1.4889065031944502e-03  3.1545196217224909e-03  2.9270663244318907e-04  1.9048870344550795e-03  9.0467223446249581e-05  9.2263802052284334e-04  2.5914574554332208e-03  3.3056309097730403e-03  1.7752610031521842e-03  9.7102089404494963e-05  3.3801144043393034e-03  1.3495604677504414e-04  9.7842178502492564e-04  1.9230116337979315e-04  2.9887525927913962e-03  3.4600792570651438e-04  8.4546137164623716e-04  1.3609580002992834e-03  7.7103174560779375e-04  5.7454384501241644e-04  3.4751490511873845e-03  1.8771872883780116e-03  1.4994193882365836e-03  1.8592942155776521e-03  6.0853716496687667e-04  3.9080783072264910e-04  1.4952601100866447e-03  9.0390224814441977e-04  4.3762225337917373e-03  1.1287186981380011e-03  1.4290942808682084e-03  3.7931845464202487e-03  7.2958103260838993e-04  2.4681300177396342e-03  7.1569128320311251e-04  4.0507812324099730e-03  2.7371803369885556e-03  9.0120453810385668e-04  4.6030424601905021e-04  4.3703072510292891e-04  3.7688211172004485e-03  2.6813065613021260e-04  2.8281485940798282e-03  2.6773802609301066e-03  1.2873037280444668e-03  7.7202058364999682e-04  6.5749609860564929e-04  3.0033266391141108e-03  2.2523203749017949e-03  1.2776652455956659e-03  2.0306216239627387e-04  3.6282665012776359e-03  1.0201248047093382e-04  4.0787695143424110e-03  4.0649828026829973e-03  3.4186486466973760e-03  7.9160991260952831e-05  4.8725767239854131e-04  1.3480208924621564e-04  3.9449757929055258e-03  3.4645878185939555e-03  7.7150561769002979e-04  7.0411295171286684e-04  1.7994910472677156e-03  3.0262243747591539e-03  3.2318811570124098e-03  2.6010965000772012e-03  7.1224575310520474e-04  1.8417764239969815e-03  2.1949097754101442e-03  3.8337791946731279e-04  2.9665890076606641e-03  1.1528659055967340e-03  1.1574473443815434e-04  3.9776386290125526e-04  1.1693714803436975e-03  1.3439376912580249e-03  1.1753312471440367e-03  1.3841801326329355e-03  8.6587411395298104e-04  7.7083488312955275e-04  3.1009401380673370e-03  9.8097159037309348e-04  3.3851303924950222e-03  2.6647466684223605e-04  2.8712621225770504e-03  2.0005955456010530e-03  1.9110846196719984e-03  1.6775880087714218e-03  2.8238534632743042e-03  1.4599066543219941e-03  2.3899300209257596e-03  2.4208497277050140e-03  2.0535295266941702e-03  2.1767384222294750e-03  2.9775036143430715e-03  8.8427554874147537e-05  3.8415479961741222e-03  1.1261383292121426e-03  3.0372624473159614e-04  3.2015082668706836e-03  1.5599570338861320e-03  1.9054632704984054e-03  2.7401089831857522e-03  2.2442163462596666e-03  2.5588389935932467e-03  1.1196582746048943e-04  1.2774533867323989e-04  1.6537373427604070e-04  1.6410347389108329e-03  1.4016518877775356e-03  2.7160230357404563e-03  9.0639728916452455e-04  4.0119075468641264e-03  2.7930865330222858e-03  3.7747222678528834e-03  6.8677546869347112e-04  3.9422529520418779e-03  8.2783246724578690e-04  1.2665280463608883e-03  2.7134675351340610e-03  3.6599593247204867e-04  7.8841656266095148e-04  7.3162943305344578e-04  1.0399394309428586e-03  8.7990370314626086e-04  1.0732273186741974e-04  2.4121995485799110e-03  2.1717290105875754e-03  1.0507742735447261e-03  9.2692508014685605e-04  8.2832563153722246e-04  6.0570663602625534e-04  4.2759235287569120e-04  4.9205417981005467e-04  3.4059377789134515e-03  1.0755328456904963e-03  8.1088560811934211e-04  1.3549264068493619e-03  2.0161426567648524e-03  1.0913361868910711e-04  1.7735979809807728e-03  1.1647455755009074e-03  7.4908086702062517e-04  3.3815526023747056e-03  3.0857589179243048e-03  3.1259528684095023e-03  8.0051455765282843e-04  9.0907165564026507e-05  4.1906675858373920e-03  3.5317173607679344e-03  2.5462234585284797e-03  5.2835011093871264e-03  4.3277309035526521e-03  1.1957520130215689e-03  3.6864987097424912e-03  1.4953741918690192e-04  1.0126400041358487e-04  3.4971292845701929e-04  2.0758003406470252e-04  2.9362321733350035e-03  1.9190352423266788e-03  2.8626591368471036e-03  1.8814708178021252e-03  3.3124924761575281e-04  1.2061264400799558e-03  5.8737362638445231e-04  1.7061724124835283e-04  2.3137254072843794e-03  1.1620091859371939e-03  4.1245434747980278e-03  2.5234550848793661e-03  1.5820585183368404e-03  1.2812443561832079e-03  6.4705942025467097e-04  3.6671747701177656e-03  6.7062109387848294e-04  9.8779362346996255e-04  4.9449870512160619e-04  7.9537994211485068e-04  1.7307611375055724e-04  9.5719457334300857e-04  1.3489154445844368e-03  7.2966384183863761e-04  5.6687165253532909e-04  2.5039752616499611e-03  1.4382185069582699e-04  6.2879613392793075e-04  3.3305253385279244e-03  2.4089766641280995e-03  4.1237926661865090e-03  5.4158483758699662e-04  3.2069789382587429e-03  1.3912692848056240e-04  1.6403653024951649e-03  4.0618476803675587e-03  2.5394366888101360e-03  2.5792943633812763e-04  1.4508167532117562e-03  1.0340745144066679e-03  1.9948204324145282e-03  1.8054125223995751e-03  2.8384398395863652e-03  3.5415622316703360e-03  1.9184381164025946e-03  6.0061965957266779e-04  3.1583803104799440e-03  2.1429125377143846e-03  2.3082175174013769e-03  2.0343234800969264e-03  6.5644593697414461e-04  1.2752105736982290e-03  7.4071844157861831e-04  2.1946551175799872e-03  2.8149123944357568e-03  2.4545661087714706e-03  1.6738525963720051e-03  2.6917922377762559e-04  1.6715637898191171e-03  1.2736503098369769e-03  1.9522931009067236e-03  2.5561549471925528e-03  2.2846704846239546e-03  2.4788863063610875e-04  1.7578031006837101e-03  1.3418323508766847e-03  1.4085710023399672e-03  1.6103080635980177e-03  8.6309310500813202e-05  2.2685899165830991e-04  2.7760286107353775e-03  1.1048104072137559e-03  1.8446895538382019e-03  8.7373901157153055e-05  2.2491459626946134e-03  1.5865125643066233e-03  6.7720302690935498e-04  1.6531336155586576e-03  2.8754409076492734e-03  3.6696414271741584e-03  7.6395383294838425e-04  8.1605505941476271e-04  3.5028638769906296e-03  3.4421639668245278e-03  5.8578151057995999e-04  1.2623584586048263e-03  6.0202188587382655e-04  4.0012532774252944e-04  3.7355229233584841e-03  1.5395220226579569e-03  1.2688177687618428e-03  2.0912604443955279e-03  8.2851620511975436e-04  9.9907765825326062e-04  7.1307038619733811e-04  2.0424582469720375e-03  2.1462014922053662e-03  1.8119650250476678e-04  2.3443436382398881e-03  4.5185242420376563e-04  2.4800920404764448e-03  2.7001059270807099e-03  5.9962186444244444e-04  1.4382780093186669e-04  2.9547605029579859e-03  1.1326141990565554e-03  3.5844959847804222e-03  1.8105284567876095e-03  3.1944590920161497e-03  1.1495098957356026e-03  7.0772381398874961e-04  9.8794285421904715e-05  1.5236425070093542e-03  1.0062691870410313e-03  2.2456863936908414e-03  2.9187383904327943e-03  3.8515668196968163e-03  3.8125863418208192e-03  1.8277757162108873e-03  7.4414905977265616e-04  2.3338999917611528e-03  2.2442897079062245e-03  1.4299149866042740e-03  2.1823539889524011e-04  1.0050085668554857e-03  2.8387967425507455e-03  7.7570527107240087e-04  3.0983364402659250e-03  2.1470888423832236e-03  8.2283314422473928e-04  7.6352065093097184e-04  9.3343625335597937e-04  9.7733192523016062e-04  9.6783840516443049e-04  7.9001726733120498e-04  1.0660324685298750e-03  7.8162941897362041e-05  3.3160738167105205e-03  3.8137575080728395e-03  5.2378654820889553e-04  1.7297416555422198e-03  1.2885867762338673e-03  1.2044697450648593e-03  3.1403319007225253e-03  1.7748442957456223e-03  1.3132499835883898e-04  4.2849124467830776e-03  9.3361277133993540e-04  4.5821377846631302e-04  3.5345436818502826e-03  3.7273407494832376e-03  1.5414968229728416e-03  1.8496081483424586e-04  2.5305314338008112e-03  5.4721010289577568e-04  8.3286916020120351e-04  2.4522521287861192e-03  4.1404502783885357e-03  3.8411073537935958e-03  2.2277046646564836e-03  4.0294519791334790e-03  1.3462699069101797e-03  1.2467745878016680e-03  4.0877503754485563e-04  1.2529987968579975e-03  2.0883954175613073e-04  3.4875734654405488e-03  2.4055447294936421e-03  3.6261352458731720e-03  3.3476259477516586e-04  7.2833534440534602e-04  1.7193744935055932e-03  1.8139143016287444e-03  1.2458866816258919e-03  1.1550798356190915e-03  9.9335751904973228e-04  6.3984362822551346e-04  8.6154355276363151e-04  1.4099688933962116e-03  1.3627634461473592e-03  1.2156129414422428e-03  1.5297319118408504e-04  4.1209745202943375e-03  8.4801164895978171e-04  1.0207803768078111e-03  1.1448182360877611e-04  4.6505068950110744e-03  2.6167020196287043e-03  2.5608313709948476e-03  3.3548913285776009e-03  1.8350113917153647e-04  2.6270410246334573e-03  1.0160183962195420e-04  2.5114349976148188e-03  2.7606526202908111e-03  1.5889923403312970e-03  2.8926335010817385e-03  7.0230728039688409e-04  7.7707173458065808e-04  3.6064869398975364e-03  1.5089531271039226e-03  1.5550062719223165e-03  8.0086125472787024e-04  8.6757751193853119e-04  1.5190768448925902e-03  1.3245370553255174e-03  1.1413616872597222e-03  2.4440391114951008e-03  8.2698576770642320e-04  1.8869015641224905e-03  1.0457839466853425e-03  1.5808065713163221e-03  1.7739190474161355e-04  7.8639852734022607e-04  3.2845263364251554e-03  3.5853393516603496e-04  3.2892372188861871e-04  2.6927482133548575e-04  2.8493283212305980e-04  7.4104037349304887e-04  8.4117436319477426e-04  3.9903758800629408e-04  1.5658148295223404e-03  1.4515489578320279e-03  2.9978904203506714e-03  1.9898316105123400e-03  2.0264368005384640e-03  1.1822451750819038e-03  1.4785667827840218e-03  2.5917222730647517e-03  1.1026893349908560e-04  4.0972139422595626e-03  6.5208016725036219e-04  1.0090222815951730e-03  3.0458671400807693e-03  1.1638277488233769e-03  3.2888886938611762e-03  3.3438466158898991e-03  3.1258558054873134e-03  3.1198704530559416e-03  3.0531670196769860e-03  3.0025790575001778e-03  1.6354613785617633e-03  1.0103661262801193e-03  3.2683408741437303e-03  3.7507294836188615e-03  3.9557464235427291e-03  1.5423282845013230e-03  4.3575520578693005e-04  1.0574385773398838e-04  9.7522423685040020e-05  3.8700722854635525e-03  3.5001921355041410e-03  3.7676958731680445e-03  3.8106842070596372e-03  1.4073398856370228e-03  5.6035458899674113e-04  2.3367916058581449e-03  2.0210721482673649e-04  5.4622765535298730e-04  4.2155558254350632e-04  2.8013189343708096e-03  2.6583280732894506e-03  1.3568099227316314e-03  1.3173811547389279e-03  1.8934969326076319e-03  3.1933672993940594e-03  3.3468136301614613e-03  5.1280341825659444e-04  1.1020755953774074e-04  5.9756879594698436e-04  4.1542369353882137e-04  5.2955736181488301e-04  6.0793023462879406e-04  4.6304203498409666e-04  6.3992685093834016e-04  2.9630822144027665e-03  2.5182642072350131e-03  3.4234216446980322e-03  7.7887734580151641e-04  3.8325078632509765e-03  3.0432678683482055e-03  1.8384213862425371e-04  1.1570817460557418e-03  3.1818707553210970e-04  4.0979530159849396e-03  9.9354639509064314e-05  4.0851886378569287e-03  8.1134709083930501e-05  3.7435495356635991e-03  9.2305489121702442e-05  1.4905511531563879e-03  1.4830811148862911e-04  2.2435225932062637e-04  9.6048229548365639e-05  3.9802082834819331e-03  4.0406380474410659e-03  1.2229633386374821e-04  1.0589811141779417e-04  3.9111655257119474e-03  3.6768082191244230e-04  5.0886857746982564e-04  7.4240805680770531e-04  7.2815817515999297e-04  5.5390567663132697e-04  6.7738530561386003e-04  1.9166370005631031e-03  2.6119970635527889e-03  1.0102739102234655e-03  3.8924621231415594e-04  1.0962974181897307e-03  1.3405143807284946e-03  1.5458172558828853e-04  2.2372147061974043e-03  2.5313844497227662e-03  3.1096653122399060e-03  2.6743427408421404e-03  2.7217158246059660e-03  7.8462679359591920e-04  2.4594540084405913e-03  2.8777653578354991e-03  3.0155896813839262e-03  2.1537645778356273e-03  2.1615528813395141e-03  1.7808043756645502e-03  1.4344258615680357e-04  2.3991140784952354e-03  1.0819314324206372e-03  2.1087554592474594e-03  1.8578558748546276e-03  2.0749586558467276e-03  2.9377872728069956e-03  3.3266886795251614e-03  2.8066156725975412e-03  3.5058945279251318e-03  2.8358694777891373e-04  3.8011563433943598e-03  7.5290340377251192e-04  3.9195941690625003e-03  6.9276545528312915e-04  8.4931443069992548e-04  6.7585960962268014e-04  3.8557713503371521e-03  1.5828902458703449e-03  1.4760405647764171e-03  3.0525958818173916e-03  1.5701430855280486e-03  1.3042305576680951e-03  2.3039998392141354e-03  1.6146540010519633e-03  1.1515853967560990e-04  3.2731838196898453e-03  3.0763535035405699e-03  2.3556717835226328e-03  1.7426435797538321e-03  2.4236262760200999e-03  1.9322071031631729e-03  2.3314359548671734e-03  2.4563708700545794e-03  1.8722443940573281e-03  9.0515008999178396e-04  1.2941555491164144e-03  1.9448326024435825e-04  1.4371278251554618e-03  1.1980264532967858e-03  6.6625116140637446e-04  3.3798050286139095e-03  9.3611798639289269e-04  9.0324367575094649e-04  1.9728967764155248e-04  2.1427972873445059e-03  2.6320839121267807e-03  2.8529875982080195e-03  2.2079352279675188e-03  2.1754923123603402e-04  9.1214750951673279e-05  7.4353007167973534e-04  2.8087470235247623e-03  9.8116462988675959e-04  1.5884790757905078e-03  1.1653698715323335e-04  8.5810982680758043e-04  8.6698867892475546e-04  1.8774114259458371e-04  2.1107761493777901e-03  2.2390993620899410e-03  3.4436719777946501e-03  2.0755070381988823e-03  1.5179627268130371e-03  9.2939212880419032e-04  7.3430866459039262e-04  1.8568709076594823e-03  6.0898343838130544e-04  3.0066558295714280e-03  8.0855615007920936e-04  2.1654899278868507e-03  1.5148949597381989e-04  2.0946488153249713e-03  2.6090660237142855e-03  2.1899458348477534e-03  1.5871400271906938e-03  8.1056649652539109e-04  2.1949156207638322e-03  2.1601020393530123e-03  1.2919106277919958e-03  7.0434781599871990e-04  1.9209225737009169e-03  8.0558233499389254e-05  8.2254251128521843e-05  1.2743845163979378e-03  9.7820134242536144e-04  2.9515401630716260e-03  3.3294732166333422e-03  3.9798882395884472e-03  2.7939313257569964e-03  9.5547536143250684e-05  4.1442591328743469e-03  3.6126661279310226e-03  1.0575219302570960e-03  2.8926272787377543e-03  3.1032484975296710e-03  4.2221746982265629e-03  7.1391637892574916e-04  2.3322040852812821e-03  3.5971935897124905e-03  2.8474367926759921e-04  3.4852937415331608e-03  1.0154285582029112e-04  7.4172655067354242e-04  3.3423612751179456e-03  8.3058154217549758e-04  2.2288883326295537e-03  1.1768758505986425e-03  2.1012802432185010e-03  1.1492758363050369e-03  2.7672511164527395e-03  2.3754621267379426e-04  1.5421427039495359e-03  1.7711837572477920e-03  1.2698915132566379e-03  2.2889740804603559e-03  1.5789762224574691e-03  6.5191603441717278e-04  2.4923787062061669e-03  1.6047335197984815e-03  5.2977535819946674e-04  4.2131780431905481e-03  6.1116750613160577e-03  1.9112939293402539e-03  3.0315186030888531e-03  1.9691087347514244e-03  2.0733854535246992e-03  2.4961135540476826e-03  2.0318052107869381e-03  6.7421552943853135e-04  2.2563925810701797e-03  2.5083084128600826e-04  3.0570921794279585e-04  3.3375732208112832e-03  1.8304052815157120e-03  1.8731342259464474e-03  2.5207139311673116e-03  2.3197458643014028e-03  3.5965443349486267e-03  4.9662386837474491e-04  1.6400151998839205e-03  2.8739812168538698e-03  2.7855031787013661e-03  3.2114106216433987e-03  3.6294794347121375e-03  8.1725734909982462e-04  5.5554813829209494e-03  2.7117300750595691e-03  2.4657823019695784e-03  3.6304114934641429e-03  3.1722809127558626e-03  3.8047059160136861e-03  8.7658055999277520e-04  2.7433119881712571e-03  3.1278254409558416e-03  2.3571147874143923e-04  7.4678612459740004e-04  1.8067113952000295e-03  4.1409131755157217e-04  2.2981643067262374e-03  1.6287322849955842e-04  1.3029492741416454e-03  2.5427620543924008e-03  1.4300036147371517e-04  9.1364106674220202e-04  6.1248262654451128e-04  1.4300977003905985e-04  2.5919112740593006e-03  2.4993142313175765e-03  1.4425385135689243e-03  1.4006419187535218e-03  1.3178338327550095e-03  4.0238078612144061e-03  1.8237126687176001e-03  1.9337986708118978e-03  1.2320196823839154e-03  5.9051676197047469e-04  7.8737463617423620e-04  7.9485112846298977e-04  1.0882171905054849e-03  1.7352145763227115e-03  1.0841856222798861e-03  8.2746264244293853e-04  1.2986950687640203e-04  1.6951449969697322e-03  3.1128199661546291e-03  3.0748855758865774e-03  3.2564276091173274e-03  3.0704905875715898e-03  4.0536609937456679e-03  4.0017516915805684e-03  7.1136971467005154e-04  9.7121569251672649e-05  1.1387843353847485e-04  8.2631829906468744e-05  2.9155060887456449e-03  9.9570212400478618e-05  5.8009102410724270e-04  4.0897692541736006e-03  1.1235596575259179e-03  9.9306541154235272e-04  2.1300200077719542e-04  2.8015003791284838e-04  2.6948237285025056e-03  2.7549979124112684e-03  2.7737121575267362e-03  1.0648409433186351e-03  5.0117160265033905e-04  2.8282850920804594e-03  4.1813947709859283e-04  2.5147011280316463e-03  1.4129053904628352e-04  1.1648043280882227e-04  1.2237286920660307e-03  1.4121929585483488e-03  3.5725418791469486e-03  2.0191043426902055e-03  2.3611299468024117e-03  2.0566370918112392e-03  2.8807698105287002e-03  6.7652758056260971e-04  1.4549876794319710e-03  1.6523359570646842e-03  3.9959626923033991e-03  2.4854008965897790e-03  8.4331611370408173e-04  7.6641580037108321e-04  4.0604128483798735e-03  5.9453434892864116e-04  2.5689700946991273e-03  1.5690844051247305e-03  1.1954998395863074e-03  3.2740775725159173e-03  2.6533904528679934e-03  1.2056941465575812e-03  1.1338114424318069e-04  1.2962832820269951e-03  9.9094791892817606e-05  2.9017070984235487e-03  1.8003968022692373e-03  3.4736062236002600e-03  1.9658613782604726e-03  9.1036957295083