<?xml version="1.0"?>
<VTKFile type="UnstructuredGrid"  version="0.1"  >
<UnstructuredGrid>
<Piece  NumberOfPoints="2446" NumberOfCells="4585">
<Points>
<DataArray  type="Float64"  NumberOfComponents="3"  format="ascii">0 0.41 0  0 0 0  2.2 0 0  2.2 0.41 0  0.2404508497187474 0.2293892626146237 0  0.25 0.2 0  0.2404508497187474 0.1706107373853764 0  0.2154508497187474 0.1524471741852423 0  0.1845491502812526 0.1524471741852423 0  0.1595491502812526 0.1706107373853764 0  0.15 0.2 0  0.1595491502812526 0.2293892626146237 0  0.1845491502812527 0.2475528258147577 0  0.2154508497187474 0.2475528258147577 0  1.1 0 0  1.1 0.41 0  0 0.205 0  0.55 0 0  0.55 0.41 0  0.275 0 0  0.275 0.41 0  1.65 0.41 0  1.65 0 0  0.8250000000000001 0.41 0  0.8250000000000001 0 0  1.375 0 0  1.375 0.41 0  1.925 0 0  1.925 0.41 0  1.5125 0.205 0  1.7875 0.205 0  0.6875 0.205 0  0.9625000000000001 0.205 0  1.2375 0.205 0  2.2 0.205 0  0.4687002074688797 0.2068568464730291 0  1.99375 0.2152743902439024 0  2.0625 0 0  2.0625 0.41 0  2.2 0.3075 0  0.4125 0 0  0.4125 0.41 0  1.7875 0.41 0  1.375 0.1486128048780488 0  1.5125 0 0  1.7875 0 0  1.5125 0.41 0  0.8250000000000001 0.2613871951219511 0  0.9625000000000001 0.41 0  0.9625000000000001 0 0  0.6875 0.41 0  0.6875 0 0  0.1375 0 0  0.1375 0.41 0  1.2375 0 0  1.1 0.1486128048780487 0  1.2375 0.41 0  1.65 0.1486128048780487 0  1.126715909090909 0.2793064024390244 0  1.676715909090909 0.2793064024390244 0  0.8517159090909092 0.1306935975609756 0  1.348284090909091 0.2793064024390244 0  0.34375 0.3032389320646208 0  1.894702181800738 0.1282910975492754 0  2.092797818199262 0.1282910975492754 0  1.85625 0.3075 0  0.61875 0.3075 0  0.61875 0.1025 0  0.3648540804333487 0.1240075933101478 0  0 0.3075 0  0 0.1025 0  2.099172119769978 0.25625 0  0.48125 0.09238439620688085 0  0.5781001037344399 0.2059284232365146 0  0.48125 0.3196743479159776 0  0.7265881057911006 0.3055240343720796 0  1.99375 0.08395950269330846 0  1.459960956013612 0.3075 0  1.569025960719943 0.2986889805672169 0  0.75625 0.08213100772579164 0  1.03125 0.3278689922742084 0  0.923871252904788 0.3078247185783941 0  1.959375 0.3126371951219512 0  1.749222215368287 0.1025 0  1.275777784631713 0.1025 0  2.2 0.1025 0  1.225938124459196 0.3075 0  1.550777784631713 0.1025 0  1.000777784631713 0.1025 0  1.44375 0.07430640243902442 0  1.16875 0.07430640243902437 0  1.899250267340833 0.2229966846119207 0  0.1020898364287272 0.3140258291809757 0  1.766482954545455 0.2934032012195123 0  0.3405058858996321 0.2119987970531874 0  0.7710785630958338 0.1710968191298857 0  1.046078563095834 0.2389031808701144 0  0.2 0.3400647632937836 0  1.421109702350723 0.2261157654379721 0  0.2800464974185557 0.08982544815605742 0  0.098916018031319 0.09171660955420841 0  2.13125 0 0  2.118919042110979 0.3422084711244843 0  1.30625 0.41 0  0.89375 0 0  1.597888256393107 0.2173787389261347 0  0.20625 0 0  1.829299675393195 0.07400700849299596 0  1.71875 0.41 0  1.16875 0.41 0  2.038220665644273 0.332420740103091 0  0.34375 0 0  0.417496017710808 0.2696595573092803 0  0.2 0.07687845740457822 0  0.9295982307099278 0.1343158415898188 0  0.07390688010811153 0.1697064032433452 0  0.5238366813727013 0.2578302467013575 0  0.05452951551825875 0.25625 0  0.5229630068078351 0.1548816096928243 0  1.452769549894695 0.1548122580621249 0  1.369219062229598 0.07430640243902442 0  1.30625 0 0  0.8504409521244898 0.3356935975609756 0  0.8821881244591965 0.205 0  1.720943423819132 0.1714577452753128 0  1.157188124459196 0.205 0  1.094219062229598 0.07430640243902437 0  1.03125 0 0  1.304056576180868 0.1714577452753128 0  1.67579304192913 0.07430640243902437 0  0.2751941921308361 0.3346083473122598 0  1.209670467133757 0.1362100266964769 0  1.025335513626278 0.1700681449722324 0  0.7562500000000001 0.41 0  1.58125 0 0  0.7567170593862014 0.2409196493502535 0  0.6926714215682891 0.1272249611432207 0  0.4139715849905988 0.3397932387114203 0  0.9840787304190477 0.2717749043358119 0  0.06875000000000001 0.41 0  0 0.35875 0  0.9281250000000001 0.06276726142697993 0  0.5507396469029935 0.3219409231578227 0  0.5504468037989405 0.09136885600634273 0  1.58125 0.41 0  1.631724228912893 0.3381867502687533 0  1.825608881788174 0.14499488549201 0  1.85625 0 0  1.44375 0 0  1.44375 0.41 0  1.85625 0.41 0  2.13125 0.41 0  0.7562500000000001 0 0  0.89375 0.41 0  0.4812500000000001 0 0  0.34375 0.41 0  0.4812500000000001 0.41 0  0.20625 0.41 0  0.06875000000000001 0 0  1.16875 0 0  0.61875 0 0  0.61875 0.41 0  1.03125 0.41 0  1.71875 0 0  1.99375 0 0  1.99375 0.41 0  1.340625 0.3489494290853124 0  1.134375 0.3489494290853123 0  1.700180620188976 0.3438659752031281 0  2.135782184673599 0.07126652247502523 0  1.668441847249787 0.2129203728327609 0  1.295782514339747 0.2378437748815763 0  0.8233075729931248 0.06842334294821524 0  1.409375 0.3520314716057996 0  0.403505597322782 0.182067236678212 0  0.378125 0.05794951541303489 0  0.3043468223249023 0.1518321115979534 0  2.129248544730567 0.1906135162504124 0  2.060771381434487 0.1989445750470348 0  2.013252586573865 0.1496169464686054 0  1.942766402200229 0.1734448904596831 0  1.895522487186454 0.06076163953489683 0  2.069553871656643 0.06605731020975725 0  1.274680914880868 0.3520219391081363 0  1.614713220494657 0.09473434380863296 0  0.7899021319497519 0.3149123934144827 0  0.69518737419149 0.0634051089053758 0  0.2971740475496061 0.2592172353407536 0  1.72990325744076 0.2380068107952482 0  1.356580098625191 0.2120393231351682 0  2.034370752044885 0.2668681600792073 0  1.51768709249349 0.3426260931494756 0  1.561883724969884 0.1650446847858835 0  1.197344062229598 0.2523725417393646 0  1.804085235518364 0.3468178408964637 0  1.817887819205233 0.2589243285818559 0  1.905897727272727 0.3485060975609756 0  0.6719798073392919 0.2688965171178177 0  0 0.05125 0  0.653125 0.35875 0  0.6396896119294488 0.1627615407790282 0  0.4274150154087412 0.1242548552168279 0  1.192836486056382 0.3562350748565544 0  0.8279124365364005 0.183856489168822 0  1.097485222388854 0.2083571153401724 0  1.28257088594801 0.2944411014911587 0  1.474860187679412 0.2504218616229368 0  1.406767003493824 0.2829282258560709 0  0.446875 0.04619219810344041 0  0.515625 0.04585361801037557 0  0.592043440706648 0.05125 0  1.845656689180403 0.1998310418452388 0  2.144958525570388 0.2909790873294231 0  0.6171090763650112 0.2492366900333857 0  2.2 0.15375 0  0.5145586920831158 0.3648371739579888 0  1.57794966442982 0.3540357145964566 0  0.721875 0.3633107922168974 0  0.0496154796471391 0.333125 0  0.5843750000000001 0.3662560860076676 0  0.5810878747760798 0.1474002776121195 0  1.508991196088596 0.1421783375065625 0  0.8840670607017558 0.2640994375393898 0  0.09776612425612034 0.2204896805326566 0  1.50436820029908 0.06143401634903343 0  1.223857000523521 0.0823554862453532 0  1.153316824384777 0.1289850171317837 0  2.148922302309752 0.1258841779285271 0  0.309375 0.04312325590431198 0  1.621993280276081 0.2841214267927899 0  1.550118654119087 0.2461998729100966 0  1.327182649291491 0.1216967252533594 0  1.051977450479407 0.1221382572915816 0  1.753125 0.04556020050186112 0  1.271875 0.04556020050186116 0  0.9816084133102366 0.05126138213476004 0  1.039051841454368 0.0572224914831029 0  0.9719230514536006 0.3480477870845102 0  1.94956388244759 0.1180512551534177 0  1.949997712993411 0.04965831614304109 0  1.771961817615021 0.1530278789497521 0  1.909246823951428 0.2812757146784527 0  0.2459536687882397 0.04668633953831142 0  1.948575539857022 0.2445328248721197 0  1.697271520964565 0.1233917627620729 0  0.7964897648514618 0.1211426571931604 0  1.065625 0.3689344961371042 0  1.085849084308977 0.3170853572226867 0  0.4702981435440001 0.260434880697798 0  1.577403511714593 0.05463601888079143 0  0.05622663515370135 0.05493816910862376 0  0.3267207591099919 0.3566194660323104 0  0.9003051618565143 0.3564049499960621 0  1.751571320346033 0.3651102912045228 0  0.1583785085108421 0.2994699345738728 0  0.1455283439499995 0.3542795598723423 0  2.2 0.35875 0  0.2347662494194072 0.298325008655211 0  0.1527284455616188 0.1065771775690181 0  0.1382139529076665 0.05427454456341477 0  0.8749341636311069 0.05110114999892954 0  0.643661668713109 0.05693499781019222 0  1.466879772203159 0.3611261772912453 0  1.990280163552011 0.3564754268533217 0  1.17471064520912 0.2990917256188288 0  0.5202693090594349 0.206382495511728 0  0 0.25625 0  2.2 0.25625 0  2.2 0.05125 0  0 0.15375 0  1.853978576207987 0.35875 0  0.9787513713939683 0.1487523696999336 0  0.240625 0.3722153812029779 0  1.515638456102889 0.2882700110184686 0  0.09048297387599738 0.3637717362208066 0  2.150453692751374 0.2387066338105111 0  1.323782677156475 0.04897634338873398 0  0.8074131292871642 0.3624701995505916 0  1.409375 0.03715320121951221 0  1.406484531114799 0.1087852750766809 0  1.134375 0.03715320121951218 0  1.627401732573545 0.04552157221025036 0  0.1170173172005315 0.1427610859166811 0  2.045405893604797 0.1105340662939892 0  1.255408269734577 0.1577307500159216 0  2.028125 0.03707597992059326 0  0.4743610090857199 0.1421513964721819 0  0.9354010469015898 0.250631300585664 0  0.04420832937638274 0.128125 0  0.8922386349349938 0.0992956419364831 0  0.1197849154434487 0.2663398672460083 0  1.248258025468107 0.2565907092181813 0  0.3746885856929528 0.370723531618974 0  1.203125 0.0366132337404304 0  0.5724622277005015 0.2751253816079333 0  0.3365425205162783 0.08395777655057959 0  2.072662025974815 0.2975086504196739 0  0.4581080832182547 0.3648371739579888 0  0.3874522734668214 0.2295447548840689 0  0.7827853612484443 0.04106550386289586 0  1.887722846421017 0.1760882698830035 0  1.472640588990488 0.1118278026240017 0  1.865937103925594 0.2604137786483804 0  1.463913572748262 0.2030442564990043 0  1.376426316059077 0.3186741374914345 0  0.6641993820150034 0.3141688596240831 0  0.2943117490824315 0.2130987422685822 0  0.3478153998082709 0.1666571081082676 0  0.3427990510599805 0.2575950027870776 0  0.7997118993855807 0.2216171933356366 0  
[...]
<PointData  Scalars="f_10-1"> 
<DataArray  type="Float64"  Name="f_10-1"  format="ascii">6.0888911263898206e-04  1.1728259690028389e-04  9.6756951156003591e-04  2.2699129732494487e-03  2.0956868040585448e-03  1.4805339970360525e-03  7.5441364885819049e-04  3.3069185596678387e-04  2.7867559242499034e-04  3.2062397637089198e-04  4.1490834348383260e-04  7.4545786040464243e-04  1.4535079834781576e-03  2.0636085734281602e-03  4.7633866353745852e-04  3.4579637904606948e-03  3.0076113407921499e-04  1.5473337683672548e-04  4.0861841493721185e-03  1.3639866507482191e-04  4.0070335817258985e-03  2.9052263828162959e-03  8.1217197219006910e-04  3.7838858825559349e-03  2.8731146288034029e-04  6.5770782842923677e-04  3.1644884478072587e-03  9.3101173213723889e-04  2.6441674528694566e-03  1.8760029363072250e-03  1.8376590547342553e-03  1.9339130758698477e-03  1.9309368935326524e-03  1.9077275297105802e-03  1.7157620681363805e-03  1.9388831116322431e-03  1.8655279988971140e-03  9.6624566437966501e-04  2.4704551187314482e-03  2.1906741669235398e-03  1.4051532126961995e-04  4.1710888755158776e-03  2.7811377749030813e-03  1.3399080212437987e-03  7.3955976545275704e-04  8.7669460449491432e-04  3.0312643603965721e-03  2.7894065305710692e-03  3.6183319895810562e-03  3.7984481800099160e-04  3.9461838999716040e-03  2.0592594905788377e-04  1.2428774145065730e-04  2.3556477672246577e-03  5.7136149965044498e-04  1.2593729195089149e-03  3.3053285581899883e-03  1.3944078183443698e-03  2.7809691693787358e-03  2.4430920356989716e-03  9.3646794401788401e-04  2.6339516952510636e-03  3.9455459663048538e-03  1.3001547403856078e-03  1.3160223759895230e-03  2.5012920940862826e-03  3.6087539196621742e-03  4.5672001103010487e-04  2.7904500988079763e-04  4.6118950400779365e-04  1.6525064653452839e-04  2.0622309221661338e-03  2.5407149373478372e-04  1.9402914660983784e-03  3.9265861205800981e-03  3.4400277736960109e-03  1.1049858037529979e-03  2.7736291318374651e-03  2.6409219611347435e-03  4.4605324527251651e-04  3.2927810479803105e-03  3.2379063641978568e-03  2.4467434456822272e-03  1.1197179060405489e-03  9.3137547441148689e-04  1.1897914436117621e-03  2.9561049410861567e-03  1.0507427058431904e-03  7.7499074964001622e-04  8.5053784308153878e-04  6.9622608089080164e-04  1.9476321243854014e-03  4.5377934432239177e-03  2.4827575030103325e-03  2.0851184599819002e-03  1.4021554785583867e-03  2.3622714435973815e-03  5.0608220637202300e-03  2.0973345884226207e-03  1.9810298603130307e-04  1.6276772869532855e-04  9.6987197677056458e-04  2.3717276567573040e-03  3.2329215102019099e-03  3.3242415879211759e-04  1.9743736323622170e-03  1.3177000074526718e-04  1.0204146289645342e-03  2.8432112587169715e-03  3.3806660832983821e-03  2.4437705549631423e-03  1.3919871051129410e-04  3.4468533607720192e-03  1.8213209607494544e-04  1.0263792143983300e-03  2.4668846889537593e-04  3.0539355054106623e-03  4.1196300812284479e-04  8.9666124283997782e-04  1.4111366961456959e-03  8.1223900888857681e-04  6.1299765985147099e-04  3.5471089311012402e-03  1.9342767204655099e-03  1.5783798162283290e-03  1.9155904028626187e-03  6.5025916633169834e-04  4.2992566908518765e-04  1.5467594861791744e-03  9.5995668405274791e-04  4.4468806726089324e-03  1.1759413461547548e-03  1.4810966385141750e-03  3.8678705649792013e-03  7.7782137867074064e-04  2.5303970554787021e-03  7.6355156067941816e-04  4.1229941597860868e-03  2.8027034536548595e-03  9.7971387686029369e-04  5.3741883172701680e-04  4.7868195350911309e-04  3.8400815056872694e-03  3.1313191973916284e-04  2.9676610968623618e-03  2.8035973686910865e-03  1.3942544583634428e-03  9.0567830798406548e-04  6.9776694566473212e-04  3.0961813733696142e-03  2.7145771740544780e-03  2.3608402158823774e-03  2.4343082084139024e-04  3.7029159372228950e-03  1.4375151079825128e-04  4.1537496069499981e-03  4.1396065305994764e-03  3.4951158258245208e-03  1.1879855723604780e-04  5.2585171348172859e-04  1.7585974464878954e-04  4.0195852016484948e-03  3.5391985596414819e-03  8.4498685919599326e-04  9.5014012589614554e-04  2.5634362003223907e-03  3.1016290518210273e-03  3.3045154343311601e-03  2.7717846637149890e-03  1.0811884460773700e-03  1.9220038540778185e-03  2.2556885220857870e-03  4.2579179853060022e-04  3.0463603216404622e-03  1.2076041819154754e-03  1.5975311101138211e-04  4.4985973303776297e-04  1.6627119789580840e-03  1.7375635023792173e-03  1.4362397887062253e-03  1.5912674209371024e-03  1.0005233153815244e-03  1.0591838562143551e-03  3.1748478016610038e-03  1.0311026967535081e-03  3.4555393265574405e-03  3.0910568804742291e-04  2.9353394959624329e-03  2.1111061393191913e-03  1.9684435655268691e-03  2.1660692430444865e-03  2.9160431696159165e-03  1.5153368064932851e-03  2.4525918062627042e-03  2.6975646735418043e-03  2.2327825113851131e-03  2.6140255269172983e-03  3.0434805608750204e-03  1.2951476142751225e-04  3.9150066506933529e-03  1.1782276970911561e-03  3.5185154512520455e-04  3.2748226843130122e-03  1.6143588617008467e-03  1.9623784908583096e-03  2.8082777114461746e-03  2.3105565026518143e-03  2.6278308463529992e-03  1.5493640706652786e-04  1.7037213860484794e-04  2.0782934167202586e-04  1.7893898402748431e-03  2.1871875445023609e-03  2.7797965748999564e-03  1.4324297203448760e-03  4.0855918978645028e-03  2.9057928985751547e-03  3.8483715647403679e-03  7.6177808487864823e-04  4.0160149540273710e-03  8.7811731513784451e-04  1.3162681603347047e-03  2.7782852800492747e-03  4.2666733251605786e-04  8.3095148370698638e-04  7.7348048394379205e-04  1.0865199329508596e-03  1.2995867618140469e-03  1.5079756426923476e-04  2.5080998073469143e-03  2.2428579567440299e-03  1.0961713246655290e-03  9.7310891819565827e-04  9.0260507508482487e-04  6.4514677818491254e-04  4.6834021016972622e-04  5.3289821138244602e-04  3.4785740756550663e-03  1.2519340883352193e-03  9.8735206999252191e-04  1.4431084989777721e-03  2.3260621496813279e-03  1.5295510824097296e-04  2.0771662704443710e-03  1.2279739436210934e-03  7.9603685959978466e-04  3.4552346355434618e-03  3.1558864727698021e-03  3.1916442401725836e-03  8.4646553989916804e-04  1.3237040885157473e-04  4.2637104574218465e-03  3.6049280671457623e-03  2.7872177362641090e-03  5.3514731160862116e-03  4.4023693328986944e-03  2.2825992487950256e-03  3.7524443838083026e-03  1.9872137639665656e-04  1.4421078423810108e-04  3.9090948006259872e-04  2.5006252530606357e-04  3.0243055032380555e-03  2.5492043597243148e-03  2.9309768496735989e-03  1.9397495666897441e-03  3.9754108601447458e-04  1.9861418642072716e-03  1.0259371267839796e-03  2.2242897028229049e-04  2.6838346535144912e-03  1.2114870199153008e-03  4.1990957785325266e-03  2.6009254695940212e-03  1.6589328229671121e-03  1.9292011705027011e-03  6.8667260544281832e-04  3.7407471303280283e-03  7.1038372857241223e-04  1.0320915503429404e-03  5.3395015158743905e-04  8.4593426394213693e-04  2.2529075718883808e-04  1.2259958274167149e-03  1.3986608321896034e-03  9.8561282612766765e-04  6.1658835491734221e-04  2.5669865541629974e-03  1.9253604974953174e-04  6.7331378057812149e-04  3.3960517278887920e-03  2.4722015791351143e-03  4.1977137806513349e-03  5.8080788949915285e-04  3.2739686391684781e-03  1.8550799922388133e-04  2.2859523133412912e-03  4.1355014083049972e-03  2.6017334417219352e-03  2.9908772007454797e-04  1.6120798495661451e-03  1.0794556851158300e-03  2.2207421610314412e-03  1.8630532752990435e-03  2.9115377363203099e-03  3.6121151979265176e-03  1.9781055421652077e-03  6.5299009948504357e-04  3.2236011828872708e-03  2.2024898274413326e-03  2.4433241042207403e-03  2.1734702219231745e-03  9.9831621760209234e-04  1.3278296940896809e-03  7.8826267998383158e-04  2.2546945565762580e-03  2.8815096005319848e-03  2.5175320050824933e-03  1.7281387586961874e-03  3.2140804924313536e-04  2.5190472717559814e-03  1.3280647355477311e-03  2.0106460882940089e-03  2.6190253174462556e-03  2.5088129994369677e-03  3.0744205162907060e-04  2.1519638919854402e-03  2.2917012228137559e-03  2.4176867007434802e-03  2.4577017008812064e-03  1.2705431557747047e-04  2.6822942663959695e-04  2.9361106337163633e-03  1.1906864160482402e-03  2.3615107354512188e-03  1.2823299694133207e-04  2.3119670509616974e-03  1.6394659174625234e-03  7.1862330911517762e-04  1.7197841972562209e-03  2.9984916958611025e-03  3.7442985676909377e-03  8.2864270954300517e-04  8.7969760025512905e-04  3.5774396686959900e-03  3.5158306624603428e-03  9.9510680068676770e-04  2.3346406364620938e-03  6.8074006833799096e-04  4.4498357178380024e-04  3.8093310586972762e-03  1.5932341922938647e-03  1.3201334851976033e-03  2.1741110135755368e-03  9.1829702106092752e-04  1.1149783812610570e-03  7.5831167579041181e-04  2.6125973118341999e-03  2.2063433549930592e-03  2.3279137819160267e-04  2.7484444324799768e-03  4.9149143934696087e-04  2.6577566865676754e-03  2.8665256728393953e-03  6.4292693203955398e-04  1.8887825023151039e-04  3.0317131910814134e-03  1.4514322818089407e-03  3.6590760733746486e-03  1.8728993788318224e-03  3.2688270665627637e-03  1.5459884248304775e-03  7.4863078677511611e-04  1.4131529524626834e-04  1.5764392831424186e-03  1.0596355331033644e-03  2.3253483887185613e-03  2.9848912341524998e-03  3.9209204850507899e-03  3.8825241971899107e-03  1.8848431217128060e-03  7.8722226997714260e-04  2.3951631990527266e-03  2.3050060550714102e-03  1.4812796397754870e-03  2.7478893087511385e-04  1.5023256672761062e-03  2.9094687768475421e-03  9.8850723106896974e-04  3.1665713942108189e-03  2.6801656506443066e-03  9.4042304088253186e-04  9.1931982426779718e-04  1.0870087129268350e-03  1.0225183131156617e-03  1.0303444709228323e-03  8.4651583182024078e-04  1.1211223625537075e-03  1.1765095522151719e-04  3.3867505493785396e-03  3.8813149393060243e-03  6.0154794471610072e-04  2.5122507437172056e-03  1.3373199777505220e-03  1.2568281397456686e-03  3.2101694149118489e-03  1.8456609777212896e-03  1.7347979949674491e-04  4.3515265007695557e-03  1.0123467305912647e-03  5.0306196610287398e-04  3.6083634113582438e-03  3.7999941199503089e-03  1.5953545886793130e-03  2.3843602429931128e-04  2.5946929215800306e-03  5.9124578673456899e-04  1.0793240983751604e-03  2.5210864035105085e-03  4.2147235808343373e-03  3.9164798205768864e-03  2.2964593720936110e-03  4.1046785269460637e-03  1.4003884687628439e-03  1.3011641327018433e-03  4.5637251890704719e-04  1.3068473045989607e-03  2.5833576030007490e-04  3.5558445750422008e-03  2.4670829667709517e-03  3.7000491729634521e-03  4.0432359209956371e-04  7.7156944906748930e-04  1.8180449710717033e-03  1.8695937887960765e-03  1.3184017384011359e-03  1.2020888648348049e-03  1.0377763208935806e-03  6.7913117087776542e-04  9.0656428815597033e-04  1.4780032460707518e-03  1.4124276991444968e-03  1.4324797198507658e-03  2.0285938153102035e-04  4.1927055183934364e-03  8.9176961807464674e-04  1.0663380624235412e-03  1.5935344278949563e-04  4.7210894675414495e-03  2.7201274079287708e-03  2.6922261208629159e-03  3.4212065271060970e-03  2.3555179716465118e-04  2.6905240098186942e-03  1.4465133185221371e-04  2.5735825326580531e-03  2.9086210936565605e-03  1.6497936217203576e-03  2.9994561830018452e-03  7.5050794749258090e-04  8.9138952973613769e-04  3.6786009255028902e-03  1.9869136314029103e-03  1.9534742795506523e-03  8.4285522895146813e-04  9.2233660712998165e-04  2.2258935644702696e-03  1.8715687591938932e-03  1.7272293928578927e-03  2.6610741858027606e-03  8.7122542797919635e-04  1.9437385553146456e-03  1.0937021265272010e-03  1.6345918414370994e-03  2.1879701493839765e-04  8.2777254757913454e-04  3.3573209287027796e-03  3.9866131282528355e-04  3.6925939918228552e-04  3.0915503577700411e-04  3.2559936647745123e-04  1.1545123162721659e-03  1.2003161700542917e-03  4.3880519023890889e-04  1.8270600470752139e-03  2.4145794631739827e-03  3.0645002701710821e-03  2.0476560608109714e-03  2.0848426832757146e-03  1.3002180272707531e-03  1.5860652327925055e-03  2.6545369385635336e-03  1.5397389326763077e-04  4.1712723298665214e-03  6.9643490528761929e-04  1.0639800737773800e-03  3.1144062823084974e-03  1.2147729866491710e-03  3.3629939970562434e-03  3.4186513575114180e-03  3.2021876394065737e-03  3.2004696815790806e-03  3.1327072664808931e-03  3.0722878686060676e-03  1.6896267766664879e-03  1.4177061071986065e-03  3.3438142398367573e-03  3.8253817775180609e-03  4.0291283536520069e-03  1.5995481991928750e-03  4.8590912496520103e-04  1.4856207386221756e-04  1.3958338723928462e-04  3.9418347159276132e-03  3.5689553507686090e-03  3.8394402971560350e-03  3.8833350783546131e-03  1.5390611164442425e-03  5.9942555033004206e-04  2.3982313434118036e-03  2.4661912824236362e-04  5.9446682180519842e-04  4.6797291350863266e-04  2.8758727374753753e-03  2.8751001842551647e-03  1.6258272141559346e-03  1.6366055267440437e-03  2.2737466233833329e-03  3.2704278399722513e-03  3.4209754236866475e-03  5.5203453124839127e-04  1.5261525757401633e-04  6.3622709367386159e-04  4.5439406715527190e-04  9.6852647596966661e-04  9.6800397235692983e-04  5.0172483909200827e-04  6.7943741837628085e-04  3.0633947235587473e-03  2.8126375323918938e-03  3.4980374873953978e-03  8.6279132573995369e-04  3.9071580459725539e-03  3.1307064629609240e-03  2.2439746700356002e-04  2.3029655022219213e-03  3.5777515650327861e-04  4.1727609438634242e-03  1.4121943231041543e-04  4.1598350513353827e-03  1.2106819385318260e-04  3.8194986402526870e-03  1.3385741035329486e-04  1.5686522688655139e-03  1.8917877321870198e-04  2.6455890051061472e-04  1.3805942373831297e-04  4.0548388613170479e-03  4.1152563140482669e-03  1.6350395168840786e-04  1.4744589849551650e-04  3.9858405777983691e-03  4.0697132255732379e-04  5.4732344520676865e-04  7.9481048994248140e-04  9.4071466166831383e-04  5.9230795990249173e-04  9.5893206569300953e-04  2.6051943970481178e-03  2.8302578092835413e-03  1.2429168920197204e-03  4.3220807250820789e-04  1.1423062534809268e-03  1.3906213387613316e-03  2.0089942812198013e-04  2.2989830126617884e-03  2.5970545461503837e-03  3.1811384357165492e-03  2.7620698307846301e-03  2.8032571289803385e-03  9.3991323309030120e-04  2.5228782672314623e-03  2.9578293241994723e-03  3.1018733939552567e-03  2.2626644691236030e-03  2.5056296396070627e-03  1.8685393416949057e-03  1.9129727487084353e-04  2.4607119156604342e-03  1.1810456051269535e-03  2.2017732300699260e-03  1.9142100110308210e-03  2.4648946337498738e-03  3.0364622865619354e-03  3.3968662048206822e-03  2.8733715335640081e-03  3.5800241104751436e-03  3.4625501765921069e-04  3.8680271607395848e-03  8.0135584669033331e-04  3.9937123162547342e-03  9.8743523948797898e-04  1.1619013984021861e-03  7.1921139814891443e-04  3.9299004437291125e-03  1.6356536429115130e-03  1.5409825225708973e-03  3.1247075475295148e-03  1.7866837630596052e-03  1.4719259195621452e-03  2.3810527890666868e-03  2.3846427329517438e-03  1.6000748674136102e-04  3.3412841105194928e-03  3.1433324146125127e-03  2.4171966095904445e-03  2.3233474670136859e-03  2.7586308455230437e-03  1.9894604296791089e-03  2.6238583035682575e-03  2.5936484783824171e-03  2.0481022998345018e-03  1.0843098901743020e-03  2.0587024713007432e-03  2.4035255321611186e-04  1.4896396071993926e-03  1.2488768887801717e-03  7.1197175528407025e-04  3.4517529875456045e-03  9.8341968776726471e-04  9.5514430603333377e-04  2.5076402085059312e-04  2.6629985230719262e-03  2.6950554174481529e-03  2.9744726498352587e-03  2.2693463063523226e-03  2.6807423918190088e-04  1.3265884635171936e-04  7.9264557827615138e-04  2.9432750800199611e-03  1.0273181060559313e-03  1.6448939507865497e-03  1.6120568325662574e-04  9.0071105943489028e-04  9.1342155786857499e-04  2.2881088272328235e-04  2.1703183730657875e-03  2.6966938985737371e-03  3.5136768564015255e-03  2.5549341392064506e-03  1.5699584310250160e-03  9.7715104875249737e-04  7.7992444512785415e-04  2.0033748359636395e-03  6.5111900714864477e-04  3.0771522452674306e-03  8.6988496501372108e-04  2.3008904657033438e-03  1.9313848296784246e-04  2.1538943183040133e-03  2.6746300070389010e-03  2.2501178242271460e-03  1.6568004283431758e-03  8.5274618901304072e-04  2.3736134726064810e-03  2.3848437550188584e-03  1.7460953143106856e-03  7.4619476864847055e-04  2.5917216141759262e-03  1.2042755026793192e-04  1.2239136586742161e-04  1.3252643978721515e-03  1.1117230634285454e-03  3.0232261517527375e-03  3.3981859875726410e-03  4.0518689917527322e-03  2.8935321109313608e-03  1.3757732238862570e-04  4.2188706278384561e-03  3.6814744068631184e-03  1.2616390961214432e-03  2.9568332088982870e-03  3.1819895492058879e-03  4.2929355975828733e-03  7.5516010877787435e-04  2.7316092016601893e-03  3.6715083916124447e-03  3.4809828436575482e-04  3.5516985123815797e-03  1.4414934741535540e-04  1.0649335059423016e-03  3.4120725448155784e-03  9.3280480515980663e-04  2.2896908333507431e-03  1.2315517902030055e-03  2.3804893161240544e-03  1.8559049583579716e-03  2.8337625194686466e-03  2.8159084596493847e-04  1.5950024839229051e-03  1.8265211653908299e-03  1.3214552036077544e-03  2.3859921103468592e-03  1.6344422767534568e-03  1.0563486878329648e-03  2.5555199395165206e-03  2.1561186116786889e-03  5.7156944701321503e-04  4.2879596895799748e-03  6.1832408603022249e-03  2.1613117051717083e-03  3.0994501480805974e-03  2.0277738064848048e-03  2.1353107263621103e-03  2.5680075524055950e-03  2.0949017155627346e-03  7.1433095418641629e-04  2.6029785504576956e-03  2.9137491156736245e-04  3.4849192521493037e-04  3.4097299993206122e-03  1.8873901528199376e-03  1.9302663797304029e-03  2.5877977020880199e-03  2.3847958010302906e-03  3.6689053861917813e-03  5.3656815553878624e-04  1.8144793792393933e-03  2.9406105297530506e-03  2.8498897079734229e-03  3.2786951589018416e-03  3.7014725371397801e-03  1.3029311857211962e-03  5.6255191039914776e-03  2.7789834536973675e-03  2.5300335476384555e-03  3.7039470025650050e-03  3.2484636667087204e-03  3.8791113178094209e-03  9.4293364723346297e-04  2.8082627902611475e-03  3.1987876452528080e-03  2.7911553216353852e-04  7.9951106726718069e-04  2.5524356782556804e-03  4.5360121917882487e-04  2.3590858476382256e-03  2.0618029020509209e-04  1.3526533103435721e-03  2.6556392661764502e-03  1.8715563360649525e-04  9.6254937873917071e-04  6.5841173946858621e-04  1.8657400368959714e-04  2.6554833093878913e-03  2.7959987458424634e-03  2.2941443133209149e-03  2.0732413915177921e-03  2.2023996014894024e-03  4.0981814551410692e-03  2.0232056943081610e-03  2.4742096270303658e-03  1.2817076800829010e-03  6.2939368829375956e-04  8.6186485681705172e-04  8.8107942729523543e-04  1.1384307000433034e-03  1.7916521927849810e-03  1.1310724021642625e-03  8.7125655080157107e-04  1.7594152266990198e-04  1.7493702742366812e-03  3.1852177824338115e-03  3.1445848751594776e-03  3.3284187712961772e-03  3.1381500797988205e-03  4.1277903984433045e-03  4.0746780598207820e-03  7.5228663113569873e-04  1.3950319368363843e-04  1.5837171582441654e-04  1.2281777279007832e-04  2.9922092702121287e-03  1.4209703286819947e-04  6.2100378979930676e-04  4.1644734506459721e-03  1.1746329928343179e-03  1.5718895073296426e-03  2.7064590430161652e-04  3.4240937058430880e-04  2.7949858630703728e-03  2.8791214141430845e-03  2.8375304130120022e-03  1.2162811184593030e-03  5.7360267279997728e-04  2.8920547010002876e-03  4.9329595962846224e-04  2.5883338198422015e-03  1.8974435016571404e-04  1.6161564969267283e-04  1.4067982871881770e-03  1.9188513213744423e-03  3.6423443132108852e-03  2.0842736771296455e-03  2.4404316385662232e-03  2.1275375217089023e-03  2.9532377023816234e-03  7.1791475618183356e-04  1.5147624860060987e-03  1.7811569731769276e-03  4.0702745801753683e-03  2.7522877911941050e-03  9.9722894725009061e-04  9.4476215639267619e-04  4.1319456572040903e-03  6.4540482358359848e-04  2.7664476068492063e-03  1.6237224113976540e-03  1.2732963347794662e-03  3.3487780200322881e-03  2.7257403918482049e-03  1.2561714820374232e-03  1.5513484247482720e-04  1.4341952202187097e-03  1.4149094895465585e-04  2.9718711186669227e-03  1.8580268102481542e-03  3.5411826055682417e-03  2.0583313023568891e-03  9.5468780986543