<?xml version="1.0"?>
<VTKFile type="UnstructuredGrid"  version="0.1"  >
<UnstructuredGrid>
<Piece  NumberOfPoints="2446" NumberOfCells="4585">
<Points>
<DataArray  type="Float64"  NumberOfComponents="3"  format="ascii">0 0.41 0  0 0 0  2.2 0 0  2.2 0.41 0  0.2404508497187474 0.2293892626146237 0  0.25 0.2 0  0.2404508497187474 0.1706107373853764 0  0.2154508497187474 0.1524471741852423 0  0.1845491502812526 0.1524471741852423 0  0.1595491502812526 0.1706107373853764 0  0.15 0.2 0  0.1595491502812526 0.2293892626146237 0  0.1845491502812527 0.2475528258147577 0  0.2154508497187474 0.2475528258147577 0  1.1 0 0  1.1 0.41 0  0 0.205 0  0.55 0 0  0.55 0.41 0  0.275 0 0  0.275 0.41 0  1.65 0.41 0  1.65 0 0  0.8250000000000001 0.41 0  0.8250000000000001 0 0  1.375 0 0  1.375 0.41 0  1.925 0 0  1.925 0.41 0  1.5125 0.205 0  1.7875 0.205 0  0.6875 0.205 0  0.9625000000000001 0.205 0  1.2375 0.205 0  2.2 0.205 0  0.4687002074688797 0.2068568464730291 0  1.99375 0.2152743902439024 0  2.0625 0 0  2.0625 0.41 0  2.2 0.3075 0  0.4125 0 0  0.4125 0.41 0  1.7875 0.41 0  1.375 0.1486128048780488 0  1.5125 0 0  1.7875 0 0  1.5125 0.41 0  0.8250000000000001 0.2613871951219511 0  0.9625000000000001 0.41 0  0.9625000000000001 0 0  0.6875 0.41 0  0.6875 0 0  0.1375 0 0  0.1375 0.41 0  1.2375 0 0  1.1 0.1486128048780487 0  1.2375 0.41 0  1.65 0.1486128048780487 0  1.126715909090909 0.2793064024390244 0  1.676715909090909 0.2793064024390244 0  0.8517159090909092 0.1306935975609756 0  1.348284090909091 0.2793064024390244 0  0.34375 0.3032389320646208 0  1.894702181800738 0.1282910975492754 0  2.092797818199262 0.1282910975492754 0  1.85625 0.3075 0  0.61875 0.3075 0  0.61875 0.1025 0  0.3648540804333487 0.1240075933101478 0  0 0.3075 0  0 0.1025 0  2.099172119769978 0.25625 0  0.48125 0.09238439620688085 0  0.5781001037344399 0.2059284232365146 0  0.48125 0.3196743479159776 0  0.7265881057911006 0.3055240343720796 0  1.99375 0.08395950269330846 0  1.459960956013612 0.3075 0  1.569025960719943 0.2986889805672169 0  0.75625 0.08213100772579164 0  1.03125 0.3278689922742084 0  0.923871252904788 0.3078247185783941 0  1.959375 0.3126371951219512 0  1.749222215368287 0.1025 0  1.275777784631713 0.1025 0  2.2 0.1025 0  1.225938124459196 0.3075 0  1.550777784631713 0.1025 0  1.000777784631713 0.1025 0  1.44375 0.07430640243902442 0  1.16875 0.07430640243902437 0  1.899250267340833 0.2229966846119207 0  0.1020898364287272 0.3140258291809757 0  1.766482954545455 0.2934032012195123 0  0.3405058858996321 0.2119987970531874 0  0.7710785630958338 0.1710968191298857 0  1.046078563095834 0.2389031808701144 0  0.2 0.3400647632937836 0  1.421109702350723 0.2261157654379721 0  0.2800464974185557 0.08982544815605742 0  0.098916018031319 0.09171660955420841 0  2.13125 0 0  2.118919042110979 0.3422084711244843 0  1.30625 0.41 0  0.89375 0 0  1.597888256393107 0.2173787389261347 0  0.20625 0 0  1.829299675393195 0.07400700849299596 0  1.71875 0.41 0  1.16875 0.41 0  2.038220665644273 0.332420740103091 0  0.34375 0 0  0.417496017710808 0.2696595573092803 0  0.2 0.07687845740457822 0  0.9295982307099278 0.1343158415898188 0  0.07390688010811153 0.1697064032433452 0  0.5238366813727013 0.2578302467013575 0  0.05452951551825875 0.25625 0  0.5229630068078351 0.1548816096928243 0  1.452769549894695 0.1548122580621249 0  1.369219062229598 0.07430640243902442 0  1.30625 0 0  0.8504409521244898 0.3356935975609756 0  0.8821881244591965 0.205 0  1.720943423819132 0.1714577452753128 0  1.157188124459196 0.205 0  1.094219062229598 0.07430640243902437 0  1.03125 0 0  1.304056576180868 0.1714577452753128 0  1.67579304192913 0.07430640243902437 0  0.2751941921308361 0.3346083473122598 0  1.209670467133757 0.1362100266964769 0  1.025335513626278 0.1700681449722324 0  0.7562500000000001 0.41 0  1.58125 0 0  0.7567170593862014 0.2409196493502535 0  0.6926714215682891 0.1272249611432207 0  0.4139715849905988 0.3397932387114203 0  0.9840787304190477 0.2717749043358119 0  0.06875000000000001 0.41 0  0 0.35875 0  0.9281250000000001 0.06276726142697993 0  0.5507396469029935 0.3219409231578227 0  0.5504468037989405 0.09136885600634273 0  1.58125 0.41 0  1.631724228912893 0.3381867502687533 0  1.825608881788174 0.14499488549201 0  1.85625 0 0  1.44375 0 0  1.44375 0.41 0  1.85625 0.41 0  2.13125 0.41 0  0.7562500000000001 0 0  0.89375 0.41 0  0.4812500000000001 0 0  0.34375 0.41 0  0.4812500000000001 0.41 0  0.20625 0.41 0  0.06875000000000001 0 0  1.16875 0 0  0.61875 0 0  0.61875 0.41 0  1.03125 0.41 0  1.71875 0 0  1.99375 0 0  1.99375 0.41 0  1.340625 0.3489494290853124 0  1.134375 0.3489494290853123 0  1.700180620188976 0.3438659752031281 0  2.135782184673599 0.07126652247502523 0  1.668441847249787 0.2129203728327609 0  1.295782514339747 0.2378437748815763 0  0.8233075729931248 0.06842334294821524 0  1.409375 0.3520314716057996 0  0.403505597322782 0.182067236678212 0  0.378125 0.05794951541303489 0  0.3043468223249023 0.1518321115979534 0  2.129248544730567 0.1906135162504124 0  2.060771381434487 0.1989445750470348 0  2.013252586573865 0.1496169464686054 0  1.942766402200229 0.1734448904596831 0  1.895522487186454 0.06076163953489683 0  2.069553871656643 0.06605731020975725 0  1.274680914880868 0.3520219391081363 0  1.614713220494657 0.09473434380863296 0  0.7899021319497519 0.3149123934144827 0  0.69518737419149 0.0634051089053758 0  0.2971740475496061 0.2592172353407536 0  1.72990325744076 0.2380068107952482 0  1.356580098625191 0.2120393231351682 0  2.034370752044885 0.2668681600792073 0  1.51768709249349 0.3426260931494756 0  1.561883724969884 0.1650446847858835 0  1.197344062229598 0.2523725417393646 0  1.804085235518364 0.3468178408964637 0  1.817887819205233 0.2589243285818559 0  1.905897727272727 0.3485060975609756 0  0.6719798073392919 0.2688965171178177 0  0 0.05125 0  0.653125 0.35875 0  0.6396896119294488 0.1627615407790282 0  0.4274150154087412 0.1242548552168279 0  1.192836486056382 0.3562350748565544 0  0.8279124365364005 0.183856489168822 0  1.097485222388854 0.2083571153401724 0  1.28257088594801 0.2944411014911587 0  1.474860187679412 0.2504218616229368 0  1.406767003493824 0.2829282258560709 0  0.446875 0.04619219810344041 0  0.515625 0.04585361801037557 0  0.592043440706648 0.05125 0  1.845656689180403 0.1998310418452388 0  2.144958525570388 0.2909790873294231 0  0.6171090763650112 0.2492366900333857 0  2.2 0.15375 0  0.5145586920831158 0.3648371739579888 0  1.57794966442982 0.3540357145964566 0  0.721875 0.3633107922168974 0  0.0496154796471391 0.333125 0  0.5843750000000001 0.3662560860076676 0  0.5810878747760798 0.1474002776121195 0  1.508991196088596 0.1421783375065625 0  0.8840670607017558 0.2640994375393898 0  0.09776612425612034 0.2204896805326566 0  1.50436820029908 0.06143401634903343 0  1.223857000523521 0.0823554862453532 0  1.153316824384777 0.1289850171317837 0  2.148922302309752 0.1258841779285271 0  0.309375 0.04312325590431198 0  1.621993280276081 0.2841214267927899 0  1.550118654119087 0.2461998729100966 0  1.327182649291491 0.1216967252533594 0  1.051977450479407 0.1221382572915816 0  1.753125 0.04556020050186112 0  1.271875 0.04556020050186116 0  0.9816084133102366 0.05126138213476004 0  1.039051841454368 0.0572224914831029 0  0.9719230514536006 0.3480477870845102 0  1.94956388244759 0.1180512551534177 0  1.949997712993411 0.04965831614304109 0  1.771961817615021 0.1530278789497521 0  1.909246823951428 0.2812757146784527 0  0.2459536687882397 0.04668633953831142 0  1.948575539857022 0.2445328248721197 0  1.697271520964565 0.1233917627620729 0  0.7964897648514618 0.1211426571931604 0  1.065625 0.3689344961371042 0  1.085849084308977 0.3170853572226867 0  0.4702981435440001 0.260434880697798 0  1.577403511714593 0.05463601888079143 0  0.05622663515370135 0.05493816910862376 0  0.3267207591099919 0.3566194660323104 0  0.9003051618565143 0.3564049499960621 0  1.751571320346033 0.3651102912045228 0  0.1583785085108421 0.2994699345738728 0  0.1455283439499995 0.3542795598723423 0  2.2 0.35875 0  0.2347662494194072 0.298325008655211 0  0.1527284455616188 0.1065771775690181 0  0.1382139529076665 0.05427454456341477 0  0.8749341636311069 0.05110114999892954 0  0.643661668713109 0.05693499781019222 0  1.466879772203159 0.3611261772912453 0  1.990280163552011 0.3564754268533217 0  1.17471064520912 0.2990917256188288 0  0.5202693090594349 0.206382495511728 0  0 0.25625 0  2.2 0.25625 0  2.2 0.05125 0  0 0.15375 0  1.853978576207987 0.35875 0  0.9787513713939683 0.1487523696999336 0  0.240625 0.3722153812029779 0  1.515638456102889 0.2882700110184686 0  0.09048297387599738 0.3637717362208066 0  2.150453692751374 0.2387066338105111 0  1.323782677156475 0.04897634338873398 0  0.8074131292871642 0.3624701995505916 0  1.409375 0.03715320121951221 0  1.406484531114799 0.1087852750766809 0  1.134375 0.03715320121951218 0  1.627401732573545 0.04552157221025036 0  0.1170173172005315 0.1427610859166811 0  2.045405893604797 0.1105340662939892 0  1.255408269734577 0.1577307500159216 0  2.028125 0.03707597992059326 0  0.4743610090857199 0.1421513964721819 0  0.9354010469015898 0.250631300585664 0  0.04420832937638274 0.128125 0  0.8922386349349938 0.0992956419364831 0  0.1197849154434487 0.2663398672460083 0  1.248258025468107 0.2565907092181813 0  0.3746885856929528 0.370723531618974 0  1.203125 0.0366132337404304 0  0.5724622277005015 0.2751253816079333 0  0.3365425205162783 0.08395777655057959 0  2.072662025974815 0.2975086504196739 0  0.4581080832182547 0.3648371739579888 0  0.3874522734668214 0.2295447548840689 0  0.7827853612484443 0.04106550386289586 0  1.887722846421017 0.1760882698830035 0  1.472640588990488 0.1118278026240017 0  1.865937103925594 0.2604137786483804 0  1.463913572748262 0.2030442564990043 0  1.376426316059077 0.3186741374914345 0  0.6641993820150034 0.3141688596240831 0  0.2943117490824315 0.2130987422685822 0  0.3478153998082709 0.1666571081082676 0  0.3427990510599805 0.2575950027870776 0  0.7997118993855807 0.2216171933356366 0  
[...]
<PointData  Scalars="f_10-1"> 
<DataArray  type="Float64"  Name="f_10-1"  format="ascii">7.4866948920579944e-04  2.0717982792328878e-04  1.1171498254006326e-03  2.6395405613107762e-03  2.2129817683795845e-03  1.5933278561925752e-03  8.6349198735666537e-04  4.3899311779869955e-04  3.8845772069273947e-04  4.3245024303490792e-04  5.2903242992248035e-04  8.6199721777497219e-04  1.5718470911670742e-03  2.1828930817866031e-03  5.6428977046118600e-04  3.5909586980764946e-03  4.1574975963026573e-04  2.4646056906329686e-04  4.2198978931324580e-03  2.2903631911649864e-04  4.1423979242474346e-03  3.0404152704238429e-03  8.9690076646268028e-04  3.9173082253761704e-03  3.7711152327598321e-04  7.4381280594385609e-04  3.2969797109314077e-03  1.0227523138060008e-03  2.8204106864301677e-03  1.9847395556809224e-03  1.9466666618793455e-03  2.0464705162308141e-03  2.0422285857947145e-03  2.0177470368067918e-03  1.8876151692429142e-03  2.0527837369599595e-03  1.9886119429415334e-03  1.0772380151814114e-03  2.7204718054249554e-03  2.4484447724648565e-03  2.3320758162488373e-04  4.3051609762645368e-03  2.9265273693497573e-03  1.4396839114762157e-03  8.2482665337348582e-04  9.6242789431695813e-04  3.1639996327577722e-03  2.9106012174237414e-03  3.7515661013443483e-03  4.6869972205868866e-04  4.0797786016295847e-03  2.9666637460444475e-04  2.1520862315004886e-04  2.4937859770418065e-03  6.5843972882265818e-04  1.3606499981819635e-03  3.4380344598153971e-03  1.4927807645755096e-03  2.9036552190477732e-03  2.5648081603519336e-03  1.0363239073234477e-03  2.7558603669239116e-03  4.0723971892173329e-03  1.3972145178043275e-03  1.4309904939336189e-03  2.6353526667070451e-03  3.7368582694063445e-03  5.5405583374941675e-04  3.8073280772348434e-04  5.9336365851235236e-04  2.6307134448327527e-04  2.2266235023051953e-03  3.5115741068456627e-04  2.0535072520039134e-03  4.0561464593402386e-03  3.5675299468520302e-03  1.2020569421409822e-03  2.8991214170046280e-03  2.7651711540151577e-03  5.4055291746522773e-04  3.4217891176928357e-03  3.3650147608639070e-03  2.5975728826664662e-03  1.2112164860034480e-03  1.0251825939559017e-03  1.3258627159442812e-03  3.0822492859523881e-03  1.1428562610534280e-03  8.7038058338657789e-04  9.4011305767980572e-04  7.8758142212821875e-04  2.0642243623743397e-03  4.6694008617875543e-03  2.6086712908072484e-03  2.2009419678183525e-03  1.5085913050402080e-03  2.4789403667071302e-03  5.1914325294840575e-03  2.2102145336517719e-03  2.9904433129747621e-04  2.6020139692380513e-04  1.1002287062040002e-03  2.6092830261573432e-03  3.3654903331185493e-03  4.2173547777794358e-04  2.0850393473597940e-03  2.2381104856591312e-04  1.1095354142643670e-03  2.9818864464854645e-03  3.5135156336685148e-03  2.6285261692882774e-03  2.3207811817199000e-04  3.5711843132636748e-03  2.8185811739791079e-04  1.1263793848319116e-03  3.5582479462388750e-04  3.1761638049878933e-03  5.3576434899959169e-04  1.0012347715194886e-03  1.5114778176553963e-03  9.0231177027618825e-04  6.9952118290701314e-04  3.6772852461808103e-03  2.0459369951150580e-03  1.6805986589471767e-03  2.0259860169967920e-03  7.4209090699459666e-04  5.1838196551216951e-04  1.6506752787324441e-03  1.0483387535473892e-03  4.5762598818285391e-03  1.2747320742101281e-03  1.5861917407693957e-03  4.0014275491356112e-03  8.6276334662519925e-04  2.6486880911867775e-03  8.6363602151152399e-04  4.2540808276188983e-03  2.9248220394282464e-03  1.1191864420513273e-03  6.7519603583506254e-04  5.7052096516373304e-04  3.9697862889995512e-03  4.0965493395978095e-04  3.1011476363696634e-03  2.9331841723174070e-03  1.4925436924101061e-03  9.9343703089257366e-04  7.8337599439927885e-04  3.2286527527662424e-03  2.8712133985657976e-03  2.6733854426848752e-03  3.3366272440101354e-04  3.8362997250115521e-03  2.3600086361321213e-04  4.2883020401443574e-03  4.2734680486982250e-03  3.6317896036847513e-03  2.0891090048997908e-04  6.1341983542406221e-04  2.6708949410457434e-04  4.1532194798628583e-03  3.6723564894895282e-03  9.2987833208735510e-04  1.0492153858222683e-03  2.7687246200201569e-03  3.2317487193375309e-03  3.4350900020517451e-03  2.9034763740227883e-03  1.2006980094026443e-03  2.0317802844025804e-03  2.3711288721356026e-03  5.1868809748394768e-04  3.1765415413258506e-03  1.3168319776818212e-03  2.5514873669047307e-04  5.5587817389189339e-04  1.8045683591290224e-03  1.8659655897686643e-03  1.5443759618562641e-03  1.6988874357374492e-03  1.0904516113872723e-03  1.1648851372608345e-03  3.3053178242810973e-03  1.1219205719507574e-03  3.5838809959764166e-03  4.0237814176480384e-04  3.0565480150348974e-03  2.2258822503402544e-03  2.0791395812455333e-03  2.3156985993957034e-03  3.0454139866255003e-03  1.6168235730928105e-03  2.5708488786252417e-03  2.8353529074378009e-03  2.3536415372754915e-03  2.7660891088235277e-03  3.1664944813488516e-03  2.2155656349976779e-04  4.0472362380891786e-03  1.2837985273740620e-03  4.5259418287414504e-04  3.4058013415578579e-03  1.7226723784922924e-03  2.0736282340598588e-03  2.9325722202187608e-03  2.4274210785250150e-03  2.7500771600423939e-03  2.4888199034346815e-04  2.6379185849799224e-04  3.0095502358338882e-04  1.8985097101804954e-03  2.3968914034520204e-03  2.9001391504896437e-03  1.5801065495556061e-03  4.2182996106529284e-03  3.0364385073095713e-03  3.9807414874538328e-03  8.9692044845558338e-04  4.1487062846560525e-03  9.8144668965204681e-04  1.4142658382553933e-03  2.8996178637375825e-03  5.4379295261794435e-04  9.1900775989551078e-04  8.6529078127612550e-04  1.1845716778570794e-03  1.4266425975059482e-03  2.4556518545565994e-04  2.6302847480884689e-03  2.3587686761799790e-03  1.1921850687960916e-03  1.0707431356831829e-03  9.8884959493899171e-04  7.3354474201124513e-04  5.5897222936672573e-04  6.2362425480039522e-04  3.6094628069870539e-03  1.3497297542905261e-03  1.0796755280359789e-03  1.5422574249191502e-03  2.4587510291231326e-03  2.4825384053596856e-04  2.2036184652740646e-03  1.3223260401122457e-03  8.9485475050522746e-04  3.5872512717775350e-03  3.2835734745521208e-03  3.3145853627208504e-03  9.3357753646591249e-04  2.2488567482931531e-04  4.3959562088049303e-03  3.7365816805252140e-03  2.9240156683882747e-03  5.4776824446592688e-03  4.5368940646096437e-03  2.6023469552516275e-03  3.8760609270295111e-03  3.0111227432279563e-04  2.3851716532675846e-04  4.8218127103214251e-04  3.4318124752466821e-04  3.1551273924936055e-03  2.7283503401642813e-03  3.0562365405172316e-03  2.0533192511302946e-03  5.2176481754452695e-04  2.1946241131374656e-03  1.1647227239031681e-03  3.2827232152166428e-04  2.8298802006327985e-03  1.3133987314721601e-03  4.3333470828201201e-03  2.7236650112089562e-03  1.7963611078967512e-03  2.1039168849881088e-03  7.7493925574891921e-04  3.8729277633090795e-03  7.9738908740588149e-04  1.1258666699791333e-03  6.2275983660282160e-04  9.3217620398109433e-04  3.3163150094847425e-04  1.3309301788970900e-03  1.5005609987105090e-03  1.0864320831614938e-03  7.1932230764029973e-04  2.6860223923857699e-03  2.9441302098301729e-04  7.6890417315688276e-04  3.5192720057822635e-03  2.5909348058160706e-03  4.3309494025663541e-03  6.6917012173139956e-04  3.3983748470142339e-03  2.8407102193509480e-04  2.4641281669568619e-03  4.2682662000012020e-03  2.7205391763833560e-03  3.9035803058139857e-04  1.7176110957687516e-03  1.1732333117765450e-03  2.3443228113679149e-03  1.9716565449501840e-03  3.0385995054517706e-03  3.7407899794357170e-03  2.0936719813365950e-03  7.5928749137757240e-04  3.3461655794828210e-03  2.3173635183253217e-03  2.5662656501253618e-03  2.2908726393709449e-03  1.1137379574869290e-03  1.4339860010156283e-03  8.8789275322453238e-04  2.3699571372492291e-03  3.0049188412442636e-03  2.6363687423217922e-03  1.8345837648635745e-03  4.2766165896637796e-04  2.7446946238905393e-03  1.4253938854326752e-03  2.1241604342427706e-03  2.7381233544394989e-03  2.6386464568387813e-03  4.2314741327657878e-04  2.2892117568010027e-03  2.5530873180142320e-03  2.6964771923982242e-03  2.6844441388909649e-03  2.1857624556292528e-04  3.5980869966181778e-04  3.0702957055885344e-03  1.2837804598406961e-03  2.5190493317510929e-03  2.1975300730314634e-04  2.4285345574638390e-03  1.7455761772721913e-03  8.0404992704423081e-04  1.8251623815216636e-03  3.1314973017849161e-03  3.8777223434980556e-03  9.1338445370007810e-04  9.6570582748853198e-04  3.7106202668696874e-03  3.6479243114586990e-03  1.1272499227918972e-03  2.6452011638479528e-03  8.2049871633200686e-04  5.4120123280541150e-04  3.9418412688091414e-03  1.7005853311321069e-03  1.4244695381821853e-03  2.2891465096290366e-03  1.0048954490111872e-03  1.2067720282384023e-03  8.4338876716034126e-04  2.7825333806360967e-03  2.3223784204508993e-03  3.3826245945029132e-04  2.8990594247274709e-03  5.8061053209363116e-04  2.7876012000640758e-03  2.9997939809756416e-03  7.3690053310680574e-04  2.8560911658887395e-04  3.1690634425138274e-03  1.5656024190171048e-03  3.7923455284195164e-03  1.9815129798191407e-03  3.4004060244469908e-03  1.6713572305327550e-03  8.3539268559743507e-04  2.3498777429705229e-04  1.6825086747152185e-03  1.1670718373576732e-03  2.4432085931958302e-03  3.1079883038565791e-03  4.0485350106901786e-03  4.0107772156393884e-03  1.9966156239981103e-03  8.8077530791256956e-04  2.5120924526591394e-03  2.4209864055529198e-03  1.5854617526192979e-03  3.8668835385034984e-04  1.6438826455446762e-03  3.0358439526833813e-03  1.0841784878628195e-03  3.2921699796186771e-03  2.8454414498076089e-03  1.0282412969944876e-03  1.0087324867623210e-03  1.1798189220646150e-03  1.1146136434910692e-03  1.1199990149352488e-03  9.3215403061037115e-04  1.2134763500909937e-03  2.0760230991127821e-04  3.5153217831700679e-03  4.0068414992006311e-03  7.4012487246557384e-04  2.7223209371260593e-03  1.4366626641807148e-03  1.3626958765665231e-03  3.3376116073076277e-03  1.9755620145463283e-03  2.6623551492298248e-04  4.4760048085563187e-03  1.1011587831787557e-03  5.9922092535878648e-04  3.7407191448191831e-03  3.9312013282674588e-03  1.6988659977913269e-03  3.4640622451349591e-04  2.7148982567780163e-03  6.8623608281739564e-04  1.1798178656080259e-03  2.6416700084087646e-03  4.3485645804980091e-03  4.0518577315714170e-03  2.4132302651440627e-03  4.2396034315083713e-03  1.5085866414708789e-03  1.4098400528548514e-03  5.5632995416681689e-04  1.4147602419758755e-03  3.6098602055545148e-04  3.6819486944941636e-03  2.5847171729879844e-03  3.8325855142546774e-03  5.3266150435402461e-04  8.5761574763588034e-04  1.9259926429895091e-03  1.9788811196255972e-03  1.4146279908422044e-03  1.3003604151608011e-03  1.1321726443050564e-03  7.6640893088461190e-04  1.0026721909749902e-03  1.5780191902048490e-03  1.5138066194619437e-03  1.5370383092295214e-03  3.0622853603083086e-04  4.3232896016129462e-03  9.8612669558549690e-04  1.1629106700749548e-03  2.5627680566026647e-04  4.8504210864254672e-03  2.8467602222541325e-03  2.8199697084647013e-03  3.5450730667350230e-03  3.4163514348104450e-04  2.8110488216684017e-03  2.3923422788939478e-04  2.6920543870243420e-03  3.0415333248342076e-03  1.7538222862696147e-03  3.1313792093245470e-03  8.5107070171980520e-04  9.7795237394229795e-04  3.8090791442554994e-03  2.1314807920233916e-03  2.0869638386118651e-03  9.3450429282224351e-04  1.0317161125172002e-03  2.4162557702592279e-03  2.0254056693370381e-03  1.8873832667301222e-03  2.7936144857466190e-03  9.5952729389238759e-04  2.0549511789006150e-03  1.1935917216112438e-03  1.7419786528561402e-03  3.1046251569888833e-04  9.1748412614275584e-04  3.4882061983518816e-03  4.8849373829421537e-04  4.5938427426950020e-04  3.9869464084832786e-04  4.1618981029112908e-04  1.2819630918828337e-03  1.3170788538697765e-03  5.2813483523784653e-04  1.9441436584982108e-03  2.6779070275038362e-03  3.1882049890559396e-03  2.1598815125898705e-03  2.1981174535162097e-03  1.3965169291890757e-03  1.6889223441386100e-03  2.7737263074623761e-03  2.4900659083611492e-04  4.3045840856237904e-03  7.9179044699263183e-04  1.1735752672737331e-03  3.2402794116510305e-03  1.3187082209026955e-03  3.4950719624265180e-03  3.5515708627667938e-03  3.3338122520749991e-03  3.3330531149153280e-03  3.2641218472768381e-03  3.1993410676373463e-03  1.7952066272452708e-03  1.5431188941478022e-03  3.4766266698005549e-03  3.9588637771748921e-03  4.1614161983977785e-03  1.7119532867289793e-03  5.8931017341683884e-04  2.4234137873061748e-04  2.3237132664876103e-04  4.0722081543977037e-03  3.6956149287625663e-03  3.9696819650878084e-03  4.0146323700295762e-03  1.6415745718853891e-03  6.8746033644318980e-04  2.5152758756619266e-03  3.4253590315199317e-04  6.9520157426282534e-04  5.6630914362390051e-04  3.0027075113404208e-03  3.0118481757739268e-03  1.7388748591372102e-03  1.7545508904211534e-03  2.4121594284502550e-03  3.4031031023464683e-03  3.5533648548351257e-03  6.4049084531950500e-04  2.4577396777697539e-04  7.2256859462293426e-04  5.4262853201306020e-04  1.1109943224915392e-03  1.0879320857199316e-03  5.8948647154353877e-04  7.6533745916000336e-04  3.1959507850335580e-03  2.9540925843624766e-03  3.6311070706282499e-03  9.4804277101594029e-04  4.0407114839756744e-03  3.2631951178437495e-03  3.1489543398797721e-04  2.6508571491833791e-03  4.4690232657454334e-04  4.3070347541256963e-03  2.3366943544196500e-04  4.2937846177548986e-03  2.1151007080732017e-04  3.9554576383744669e-03  2.2616944038228494e-04  1.7075688435929839e-03  2.8013660513590124e-04  3.5455953823896713e-04  2.3087265644689258e-04  4.1885453105333162e-03  4.2490538955398923e-03  2.5495788117609850e-04  2.3940864862448746e-04  4.1195057840986930e-03  4.9567562563586928e-04  6.3458875114210105e-04  8.7959637226588756e-04  1.0355990481713641e-03  6.7910462569631814e-04  1.0633282738739857e-03  2.7950847415166087e-03  2.9662684688839414e-03  1.3446610954152803e-03  5.2584410531035400e-04  1.2377379947590085e-03  1.4931605751986380e-03  2.9933259555397210e-04  2.4152028078321046e-03  2.7181042942967006e-03  3.3101949566721927e-03  2.8884173524131446e-03  2.9297923771821354e-03  1.0297572974154901e-03  2.6434410066040115e-03  3.0867030414347880e-03  3.2337563465465432e-03  2.3805696020162298e-03  2.6454451367540674e-03  1.9773308832189513e-03  2.9186989609683784e-04  2.5782707066596584e-03  1.2740389475603860e-03  2.3177526243776878e-03  2.0241088905206071e-03  2.6085528027018365e-03  3.1684194134651731e-03  3.5248865408789190e-03  2.9969364677229515e-03  3.7127079819438262e-03  4.6590294539964846e-04  3.9927477190622269e-03  8.8684284790168538e-04  4.1267684937985692e-03  1.0941088547196552e-03  1.2715331629884793e-03  8.1320178056473584e-04  4.0628934186883320e-03  1.7406666815175662e-03  1.6634980186841346e-03  3.2538470485626819e-03  1.8995543935059669e-03  1.5744102987562967e-03  2.5186411142361677e-03  2.5912728627892154e-03  2.5673716995644653e-04  3.4669644009019062e-03  3.2675466848694290e-03  2.5344051391313293e-03  2.4903402326074409e-03  2.9026983791719230e-03  2.1011682682331848e-03  2.7614699988129090e-03  2.7197703971089302e-03  2.1646182830954231e-03  1.1787013357095661e-03  2.2627786268836739e-03  3.3812842309463321e-04  1.5954395292467319e-03  1.3448901442012699e-03  8.0916744868377000e-04  3.5818309704896850e-03  1.0736441518375121e-03  1.0438488895798421e-03  3.5870824508260168e-04  2.8264609044562376e-03  2.8148126007821847e-03  3.1069345855592118e-03  2.3871695921680795e-03  3.7209505564108258e-04  2.2497636904591988e-04  8.9443279934327171e-04  3.0759957175441081e-03  1.1248556342097998e-03  1.7491100811408639e-03  2.5757806005145915e-04  9.9294430379558434e-04  1.0114386689069300e-03  3.2000828856807502e-04  2.2853687890348837e-03  2.8526381651760042e-03  3.6416376130794341e-03  2.7111254039973590e-03  1.6747868207690961e-03  1.0769212583947227e-03  8.6545447522578872e-04  2.1173531304520929e-03  7.4351258066944535e-04  3.2049041539828180e-03  9.8783747478615102e-04  2.4208570671558731e-03  2.8516568464737941e-04  2.2676929941953597e-03  2.7963510253477750e-03  2.3653465718468459e-03  1.7607918404800511e-03  9.4182512486876559e-04  2.4975329367862213e-03  2.5120194335365299e-03  1.8829095972123504e-03  8.3218767591464703e-04  2.7784301087656264e-03  2.1088574142787562e-04  2.1319353903852064e-04  1.4231240197328388e-03  1.2040849639086480e-03  3.1512237177821708e-03  3.5254236624626045e-03  4.1826077344722127e-03  3.0230690011780453e-03  2.3055648372130206e-04  4.3532467817093455e-03  3.8082895558094322e-03  1.3614756300158405e-03  3.0779620276464503e-03  3.3139398608720842e-03  4.4224009632459413e-03  8.4607154884123418e-04  2.8814998610679865e-03  3.8044831230320333e-03  4.6861596300904699e-04  3.6757724227202823e-03  2.3769317305017546e-04  1.1761092633033406e-03  3.5395929773489902e-03  1.0199604204647265e-03  2.4055607600637734e-03  1.3265768153425319e-03  2.5117416304050949e-03  2.0446265948897598e-03  2.9569896082701215e-03  3.7682935166826473e-04  1.7011260603852687e-03  1.9357475511118129e-03  1.4261358111432975e-03  2.5058498709371406e-03  1.7442819916767499e-03  1.1844647152312625e-03  2.6746443006877970e-03  2.3151490114412918e-03  6.6355232571146743e-04  4.4227320511922843e-03  6.3139639234929823e-03  2.2852838867686407e-03  3.2246295513005774e-03  2.1394378186344932e-03  2.2488957642056049e-03  2.6896904992427762e-03  2.2077825494056635e-03  8.0076002528693896e-04  2.7450569389000307e-03  3.8181770158527930e-04  4.4194186623472848e-04  3.5400068826730658e-03  1.9990248165348478e-03  2.0420095831518007e-03  2.7091112251317650e-03  2.5027699296985640e-03  3.7996505996610755e-03  6.2606506069620813e-04  1.9255011000905873e-03  3.0641436987139171e-03  2.9709605942063451e-03  3.4034216140284360e-03  3.8318399241722570e-03  1.4432957701014898e-03  5.7542577511460399e-03  2.9025390019206225e-03  2.6498027091155577e-03  3.8360537648144334e-03  3.3805908810344821e-03  4.0123616580208668e-03  1.0303301987341696e-03  2.9297931587560369e-03  3.3274313332698163e-03  3.7347516911153420e-04  9.0621842170606382e-04  2.7540146391407754e-03  5.4257347258557698e-04  2.4756156250036387e-03  3.0048464072249232e-04  1.4516299190261016e-03  2.7816069541406916e-03  2.8265930181253421e-04  1.0639077795491407e-03  7.5593187862449190e-04  2.8126476386307190e-04  2.7761919926958434e-03  2.9373495489883029e-03  2.5225156246146147e-03  2.2545308418826125e-03  2.4423522005482369e-03  4.2316750953690137e-03  2.1405489126594033e-03  2.6374241331821981e-03  1.3838339028979841e-03  7.1676928771832163e-04  9.4715154132698565e-04  9.6677664187044127e-04  1.2318720595640518e-03  1.9026622804350810e-03  1.2294803413518487e-03  9.6570430068701799e-04  2.7412682937367214e-04  1.8564546864192782e-03  3.3149943095010259e-03  3.2717904060559147e-03  3.4584061869109349e-03  3.2630834834616283e-03  4.2610730723132047e-03  4.2065208609245114e-03  8.4263663206157714e-04  2.3317675038279985e-04  2.5458032547305624e-04  2.1365371162092900e-04  3.1293008655482418e-03  2.3566516911390734e-04  7.1175079361021913e-04  4.2987451012918287e-03  1.2787888007954312e-03  1.7304148195419534e-03  3.8393100726694210e-04  4.6154425983600616e-04  2.9227907827565794e-03  3.0099993412003355e-03  2.9585650938850042e-03  1.3118867183091322e-03  7.0553704272045099e-04  3.0126788252161879e-03  6.2863526804960010e-04  2.7217446447512683e-03  2.9122678311276437e-04  2.5878841572684079e-04  1.5085823798435516e-03  2.0664651644393072e-03  3.7702252671097899e-03  2.1970059821215084e-03  2.5604241656661817e-03  2.2412510395534045e-03  3.0806982260427741e-03  8.0917900700215378e-04  1.6158853336271550e-03  1.8892683451930982e-03  4.2036521168542489e-03  2.8904086876551855e-03  1.0881492805336769e-03  1.0364606122196286e-03  4.2622430036918608e-03  7.4968642114344060e-04  2.8997722279011117e-03  1.7323628967952614e-03  1.3683939415022497e-03  3.4811836879259928e-03  2.8499829773725345e-03  1.3594139180782771e-03  2.4736671117659266e-04  1.5344215939698622e-03  2.3480327951324735e-04  3.0986590694029640e-03  1.9707420077425741e-03  3.6665104769183807e-03  2.1713210856694645e-03  1.0497201979075