<?xml version="1.0"?>
<VTKFile type="UnstructuredGrid"  version="0.1"  >
<UnstructuredGrid>
<Piece  NumberOfPoints="2446" NumberOfCells="4585">
<Points>
<DataArray  type="Float64"  NumberOfComponents="3"  format="ascii">0 0.41 0  0 0 0  2.2 0 0  2.2 0.41 0  0.2404508497187474 0.2293892626146237 0  0.25 0.2 0  0.2404508497187474 0.1706107373853764 0  0.2154508497187474 0.1524471741852423 0  0.1845491502812526 0.1524471741852423 0  0.1595491502812526 0.1706107373853764 0  0.15 0.2 0  0.1595491502812526 0.2293892626146237 0  0.1845491502812527 0.2475528258147577 0  0.2154508497187474 0.2475528258147577 0  1.1 0 0  1.1 0.41 0  0 0.205 0  0.55 0 0  0.55 0.41 0  0.275 0 0  0.275 0.41 0  1.65 0.41 0  1.65 0 0  0.8250000000000001 0.41 0  0.8250000000000001 0 0  1.375 0 0  1.375 0.41 0  1.925 0 0  1.925 0.41 0  1.5125 0.205 0  1.7875 0.205 0  0.6875 0.205 0  0.9625000000000001 0.205 0  1.2375 0.205 0  2.2 0.205 0  0.4687002074688797 0.2068568464730291 0  1.99375 0.2152743902439024 0  2.0625 0 0  2.0625 0.41 0  2.2 0.3075 0  0.4125 0 0  0.4125 0.41 0  1.7875 0.41 0  1.375 0.1486128048780488 0  1.5125 0 0  1.7875 0 0  1.5125 0.41 0  0.8250000000000001 0.2613871951219511 0  0.9625000000000001 0.41 0  0.9625000000000001 0 0  0.6875 0.41 0  0.6875 0 0  0.1375 0 0  0.1375 0.41 0  1.2375 0 0  1.1 0.1486128048780487 0  1.2375 0.41 0  1.65 0.1486128048780487 0  1.126715909090909 0.2793064024390244 0  1.676715909090909 0.2793064024390244 0  0.8517159090909092 0.1306935975609756 0  1.348284090909091 0.2793064024390244 0  0.34375 0.3032389320646208 0  1.894702181800738 0.1282910975492754 0  2.092797818199262 0.1282910975492754 0  1.85625 0.3075 0  0.61875 0.3075 0  0.61875 0.1025 0  0.3648540804333487 0.1240075933101478 0  0 0.3075 0  0 0.1025 0  2.099172119769978 0.25625 0  0.48125 0.09238439620688085 0  0.5781001037344399 0.2059284232365146 0  0.48125 0.3196743479159776 0  0.7265881057911006 0.3055240343720796 0  1.99375 0.08395950269330846 0  1.459960956013612 0.3075 0  1.569025960719943 0.2986889805672169 0  0.75625 0.08213100772579164 0  1.03125 0.3278689922742084 0  0.923871252904788 0.3078247185783941 0  1.959375 0.3126371951219512 0  1.749222215368287 0.1025 0  1.275777784631713 0.1025 0  2.2 0.1025 0  1.225938124459196 0.3075 0  1.550777784631713 0.1025 0  1.000777784631713 0.1025 0  1.44375 0.07430640243902442 0  1.16875 0.07430640243902437 0  1.899250267340833 0.2229966846119207 0  0.1020898364287272 0.3140258291809757 0  1.766482954545455 0.2934032012195123 0  0.3405058858996321 0.2119987970531874 0  0.7710785630958338 0.1710968191298857 0  1.046078563095834 0.2389031808701144 0  0.2 0.3400647632937836 0  1.421109702350723 0.2261157654379721 0  0.2800464974185557 0.08982544815605742 0  0.098916018031319 0.09171660955420841 0  2.13125 0 0  2.118919042110979 0.3422084711244843 0  1.30625 0.41 0  0.89375 0 0  1.597888256393107 0.2173787389261347 0  0.20625 0 0  1.829299675393195 0.07400700849299596 0  1.71875 0.41 0  1.16875 0.41 0  2.038220665644273 0.332420740103091 0  0.34375 0 0  0.417496017710808 0.2696595573092803 0  0.2 0.07687845740457822 0  0.9295982307099278 0.1343158415898188 0  0.07390688010811153 0.1697064032433452 0  0.5238366813727013 0.2578302467013575 0  0.05452951551825875 0.25625 0  0.5229630068078351 0.1548816096928243 0  1.452769549894695 0.1548122580621249 0  1.369219062229598 0.07430640243902442 0  1.30625 0 0  0.8504409521244898 0.3356935975609756 0  0.8821881244591965 0.205 0  1.720943423819132 0.1714577452753128 0  1.157188124459196 0.205 0  1.094219062229598 0.07430640243902437 0  1.03125 0 0  1.304056576180868 0.1714577452753128 0  1.67579304192913 0.07430640243902437 0  0.2751941921308361 0.3346083473122598 0  1.209670467133757 0.1362100266964769 0  1.025335513626278 0.1700681449722324 0  0.7562500000000001 0.41 0  1.58125 0 0  0.7567170593862014 0.2409196493502535 0  0.6926714215682891 0.1272249611432207 0  0.4139715849905988 0.3397932387114203 0  0.9840787304190477 0.2717749043358119 0  0.06875000000000001 0.41 0  0 0.35875 0  0.9281250000000001 0.06276726142697993 0  0.5507396469029935 0.3219409231578227 0  0.5504468037989405 0.09136885600634273 0  1.58125 0.41 0  1.631724228912893 0.3381867502687533 0  1.825608881788174 0.14499488549201 0  1.85625 0 0  1.44375 0 0  1.44375 0.41 0  1.85625 0.41 0  2.13125 0.41 0  0.7562500000000001 0 0  0.89375 0.41 0  0.4812500000000001 0 0  0.34375 0.41 0  0.4812500000000001 0.41 0  0.20625 0.41 0  0.06875000000000001 0 0  1.16875 0 0  0.61875 0 0  0.61875 0.41 0  1.03125 0.41 0  1.71875 0 0  1.99375 0 0  1.99375 0.41 0  1.340625 0.3489494290853124 0  1.134375 0.3489494290853123 0  1.700180620188976 0.3438659752031281 0  2.135782184673599 0.07126652247502523 0  1.668441847249787 0.2129203728327609 0  1.295782514339747 0.2378437748815763 0  0.8233075729931248 0.06842334294821524 0  1.409375 0.3520314716057996 0  0.403505597322782 0.182067236678212 0  0.378125 0.05794951541303489 0  0.3043468223249023 0.1518321115979534 0  2.129248544730567 0.1906135162504124 0  2.060771381434487 0.1989445750470348 0  2.013252586573865 0.1496169464686054 0  1.942766402200229 0.1734448904596831 0  1.895522487186454 0.06076163953489683 0  2.069553871656643 0.06605731020975725 0  1.274680914880868 0.3520219391081363 0  1.614713220494657 0.09473434380863296 0  0.7899021319497519 0.3149123934144827 0  0.69518737419149 0.0634051089053758 0  0.2971740475496061 0.2592172353407536 0  1.72990325744076 0.2380068107952482 0  1.356580098625191 0.2120393231351682 0  2.034370752044885 0.2668681600792073 0  1.51768709249349 0.3426260931494756 0  1.561883724969884 0.1650446847858835 0  1.197344062229598 0.2523725417393646 0  1.804085235518364 0.3468178408964637 0  1.817887819205233 0.2589243285818559 0  1.905897727272727 0.3485060975609756 0  0.6719798073392919 0.2688965171178177 0  0 0.05125 0  0.653125 0.35875 0  0.6396896119294488 0.1627615407790282 0  0.4274150154087412 0.1242548552168279 0  1.192836486056382 0.3562350748565544 0  0.8279124365364005 0.183856489168822 0  1.097485222388854 0.2083571153401724 0  1.28257088594801 0.2944411014911587 0  1.474860187679412 0.2504218616229368 0  1.406767003493824 0.2829282258560709 0  0.446875 0.04619219810344041 0  0.515625 0.04585361801037557 0  0.592043440706648 0.05125 0  1.845656689180403 0.1998310418452388 0  2.144958525570388 0.2909790873294231 0  0.6171090763650112 0.2492366900333857 0  2.2 0.15375 0  0.5145586920831158 0.3648371739579888 0  1.57794966442982 0.3540357145964566 0  0.721875 0.3633107922168974 0  0.0496154796471391 0.333125 0  0.5843750000000001 0.3662560860076676 0  0.5810878747760798 0.1474002776121195 0  1.508991196088596 0.1421783375065625 0  0.8840670607017558 0.2640994375393898 0  0.09776612425612034 0.2204896805326566 0  1.50436820029908 0.06143401634903343 0  1.223857000523521 0.0823554862453532 0  1.153316824384777 0.1289850171317837 0  2.148922302309752 0.1258841779285271 0  0.309375 0.04312325590431198 0  1.621993280276081 0.2841214267927899 0  1.550118654119087 0.2461998729100966 0  1.327182649291491 0.1216967252533594 0  1.051977450479407 0.1221382572915816 0  1.753125 0.04556020050186112 0  1.271875 0.04556020050186116 0  0.9816084133102366 0.05126138213476004 0  1.039051841454368 0.0572224914831029 0  0.9719230514536006 0.3480477870845102 0  1.94956388244759 0.1180512551534177 0  1.949997712993411 0.04965831614304109 0  1.771961817615021 0.1530278789497521 0  1.909246823951428 0.2812757146784527 0  0.2459536687882397 0.04668633953831142 0  1.948575539857022 0.2445328248721197 0  1.697271520964565 0.1233917627620729 0  0.7964897648514618 0.1211426571931604 0  1.065625 0.3689344961371042 0  1.085849084308977 0.3170853572226867 0  0.4702981435440001 0.260434880697798 0  1.577403511714593 0.05463601888079143 0  0.05622663515370135 0.05493816910862376 0  0.3267207591099919 0.3566194660323104 0  0.9003051618565143 0.3564049499960621 0  1.751571320346033 0.3651102912045228 0  0.1583785085108421 0.2994699345738728 0  0.1455283439499995 0.3542795598723423 0  2.2 0.35875 0  0.2347662494194072 0.298325008655211 0  0.1527284455616188 0.1065771775690181 0  0.1382139529076665 0.05427454456341477 0  0.8749341636311069 0.05110114999892954 0  0.643661668713109 0.05693499781019222 0  1.466879772203159 0.3611261772912453 0  1.990280163552011 0.3564754268533217 0  1.17471064520912 0.2990917256188288 0  0.5202693090594349 0.206382495511728 0  0 0.25625 0  2.2 0.25625 0  2.2 0.05125 0  0 0.15375 0  1.853978576207987 0.35875 0  0.9787513713939683 0.1487523696999336 0  0.240625 0.3722153812029779 0  1.515638456102889 0.2882700110184686 0  0.09048297387599738 0.3637717362208066 0  2.150453692751374 0.2387066338105111 0  1.323782677156475 0.04897634338873398 0  0.8074131292871642 0.3624701995505916 0  1.409375 0.03715320121951221 0  1.406484531114799 0.1087852750766809 0  1.134375 0.03715320121951218 0  1.627401732573545 0.04552157221025036 0  0.1170173172005315 0.1427610859166811 0  2.045405893604797 0.1105340662939892 0  1.255408269734577 0.1577307500159216 0  2.028125 0.03707597992059326 0  0.4743610090857199 0.1421513964721819 0  0.9354010469015898 0.250631300585664 0  0.04420832937638274 0.128125 0  0.8922386349349938 0.0992956419364831 0  0.1197849154434487 0.2663398672460083 0  1.248258025468107 0.2565907092181813 0  0.3746885856929528 0.370723531618974 0  1.203125 0.0366132337404304 0  0.5724622277005015 0.2751253816079333 0  0.3365425205162783 0.08395777655057959 0  2.072662025974815 0.2975086504196739 0  0.4581080832182547 0.3648371739579888 0  0.3874522734668214 0.2295447548840689 0  0.7827853612484443 0.04106550386289586 0  1.887722846421017 0.1760882698830035 0  1.472640588990488 0.1118278026240017 0  1.865937103925594 0.2604137786483804 0  1.463913572748262 0.2030442564990043 0  1.376426316059077 0.3186741374914345 0  0.6641993820150034 0.3141688596240831 0  0.2943117490824315 0.2130987422685822 0  0.3478153998082709 0.1666571081082676 0  0.3427990510599805 0.2575950027870776 0  0.7997118993855807 0.2216171933356366 0  
[...]
<PointData  Scalars="f_10-1"> 
<DataArray  type="Float64"  Name="f_10-1"  format="ascii">8.9306191349086347e-04  3.2102012441941763e-04  1.2213947520367553e-03  2.7743599770319537e-03  2.3433254276202103e-03  1.7208194310731827e-03  9.8884731016770679e-04  5.6409306087760688e-04  5.1456720715903792e-04  5.5984434972616219e-04  6.5784194527081371e-04  9.9227177422461614e-04  1.7031809210435315e-03  2.3146881839820640e-03  6.7477460493880483e-04  3.7285252732482230e-03  5.4509406936095837e-04  3.6028494269779742e-04  4.3591897078327493e-03  3.4401416658120409e-04  4.2834833343414142e-03  3.1763297794264920e-03  1.0042774718927879e-03  4.0557202157038433e-03  4.8921214877435247e-04  8.5275216148618458e-04  3.4337152233371348e-03  1.1285240178538188e-03  2.9555634131409971e-03  2.1073494943240935e-03  2.0680435497168873e-03  2.1730598543732637e-03  2.1674355503139031e-03  2.1416259109970147e-03  2.0072202866110870e-03  2.1806717110168963e-03  2.1102214616085073e-03  1.1822097681380456e-03  2.8553063516551726e-03  2.5787466420666809e-03  3.4792416552956732e-04  4.4450592662223440e-03  3.0620600809547513e-03  1.5571226230563426e-03  9.3301438042506224e-04  1.0689912657547507e-03  3.3003246638927913e-03  3.0420271086677559e-03  3.8895550125349616e-03  5.7996989757461040e-04  4.2186286319545081e-03  4.0960859701025991e-04  3.2944465176297668e-04  2.6369667186226953e-03  7.6817899136286236e-04  1.4794951460685350e-03  3.5751741338883982e-03  1.6088293015915562e-03  3.0352843445712778e-03  2.6942994159118230e-03  1.1547916078970706e-03  2.8866017223341685e-03  4.2083892618431191e-03  1.5100507851845337e-03  1.5427707976484008e-03  2.7666131820194549e-03  3.8728459379177562e-03  6.7143208392844592e-04  5.0141875952606000e-04  7.3317513877761459e-04  3.8185490913567369e-04  2.3522859037333984e-03  4.6866627563368202e-04  2.1807417561624065e-03  4.1933498097715335e-03  3.7028910450397864e-03  1.3106952465717758e-03  3.0317330516016253e-03  2.8967311031754873e-03  6.5585169126694055e-04  3.5572982880538138e-03  3.4996698205236069e-03  2.7288762667317854e-03  1.3225921937088905e-03  1.1391199393015528e-03  1.4348135635044539e-03  3.2157005089093532e-03  1.2553118544324979e-03  9.8577654632126780e-04  1.0511723592000830e-03  9.0016143755928732e-04  2.1870961589927781e-03  4.8087703544676336e-03  2.7390911699349775e-03  2.3302355336249810e-03  1.6312781380632643e-03  2.6071839989705099e-03  5.3299246205600510e-03  2.3354716640856549e-03  4.1940829738735527e-04  3.7866352742625242e-04  1.2047583619027220e-03  2.7421321916603412e-03  3.5024200963042302e-03  5.3340773363942900e-04  2.2085959573168428e-03  3.3857255611553007e-04  1.2184585958586306e-03  3.1175948141404829e-03  3.6508671529133841e-03  2.7609642231566514e-03  3.4705877630187746e-04  3.7054840267591207e-03  4.0155079662073512e-04  1.2447767340564330e-03  4.8158385470812361e-04  3.3089319484069335e-03  6.7048956957556707e-04  1.1233310037244463e-03  1.6291323953492366e-03  1.0137892675109693e-03  8.0881635808036556e-04  3.8138771711670049e-03  2.1715443914889303e-03  1.7986492491295701e-03  2.1502472276552055e-03  8.5509048282479639e-04  6.2929267035508908e-04  1.7707496251453663e-03  1.1581242091070502e-03  4.7138745763790884e-03  1.3918506722536239e-03  1.7075162906846771e-03  4.1400785620312672e-03  9.7056860635386132e-04  2.7785536162097850e-03  9.8258002550654223e-04  4.3923499381230613e-03  3.0564266951949456e-03  1.2633426058379534e-03  8.1838995119271410e-04  6.8380473838265091e-04  4.1068829572474879e-03  5.2665856599553912e-04  3.2372711118368153e-03  3.0672070645861049e-03  1.6073435866086048e-03  1.0996009088273303e-03  8.9190123128326843e-04  3.3651704423506719e-03  3.0065194954706029e-03  2.8081727603834132e-03  4.4615597272051812e-04  3.9745250197768768e-03  3.5029450449348899e-04  4.4286921218627054e-03  4.4130384537645053e-03  3.7738716013605840e-03  3.2282093158419388e-04  7.2356521236092140e-04  3.8046822199040616e-04  4.2922764427810213e-03  3.8101542809191842e-03  1.0368338488775700e-03  1.1545358282224972e-03  2.9036727828819233e-03  3.3672749803881508e-03  3.5712732828259500e-03  3.0376049085001637e-03  1.3076877557413071e-03  2.1545458613937271e-03  2.4981394625071870e-03  6.3283548496332102e-04  3.3119548719896313e-03  1.4420202940981018e-03  3.7175890114595438e-04  6.7936667903852575e-04  1.9227883344454344e-03  1.9854372005706634e-03  1.6586923676259115e-03  1.8160833340128129e-03  1.1982286912907336e-03  1.2719336099905538e-03  3.4411680439504597e-03  1.2334359079721024e-03  3.7195704495939404e-03  5.1700245722763674e-04  3.1893066981014324e-03  2.3510769794225336e-03  2.2032059716060367e-03  2.4426922487029157e-03  3.1800499716606698e-03  1.7349751626765503e-03  2.6997214734570175e-03  2.9693113858370031e-03  2.4806594182832688e-03  2.8998054964044498e-03  3.2993627672384968e-03  3.3674560444312912e-04  4.1854839794062473e-03  1.4062476587899566e-03  5.7254019044172203e-04  3.5420964583524357e-03  1.8463771327065482e-03  2.1985250376411821e-03  3.0648364551093222e-03  2.5549445122140203e-03  2.8809068362383311e-03  3.6440626579156476e-04  3.7883873432572479e-04  4.1567200685934747e-04  2.0190544638546922e-03  2.5258410836144305e-03  3.0315571080680023e-03  1.6939541021281737e-03  4.3571952660144764e-03  3.1714259339865529e-03  4.1188831966071345e-03  1.0385189646202394e-03  4.2873929365016715e-03  1.1026469420241445e-03  1.5304006322064158e-03  3.0309859416883201e-03  6.7444380840005604e-04  1.0290205949471034e-03  9.7806952363426879e-04  1.3013371093290687e-03  1.5378928722216115e-03  3.6189160535023921e-04  2.7604181103202657e-03  2.4855565562454376e-03  1.3074008842306724e-03  1.1874387472239683e-03  1.0966754369762951e-03  8.4410398466638968e-04  6.7139264476798037e-04  7.3601170886437558e-04  3.7461725311885271e-03  1.4613351709906930e-03  1.1865420102849964e-03  1.6581341703307791e-03  2.5875882528775566e-03  3.6504353360356455e-04  2.3286218776146198e-03  1.4357524507258145e-03  1.0127906817343300e-03  3.7243826497877861e-03  3.4182032956077716e-03  3.4479134322342544e-03  1.0428494875538903e-03  3.4034884514538952e-04  4.5351267021042103e-03  3.8738862857708545e-03  3.0589190623685190e-03  5.6136765485982395e-03  4.6778772229885040e-03  2.7359856339453973e-03  4.0104029364432196e-03  4.2258101609171227e-04  3.5490139472837940e-04  5.9519117505964767e-04  4.5780114925083649e-04  3.2907384181468853e-03  2.8622066895674482e-03  3.1892741760921528e-03  2.1808966060115403e-03  6.5674696153810363e-04  2.3199909333018942e-03  1.2702735298483953e-03  4.5200629291392442e-04  2.9642154052146917e-03  1.4328732818424392e-03  4.4739162395534366e-03  2.8545388384750062e-03  1.9392697273415752e-03  2.2274965429310675e-03  8.8534510547763168e-04  4.0107476209560230e-03  9.0687638569940615e-04  1.2395819993880645e-03  7.3377187597619298e-04  1.0407451779851046e-03  4.5563637390096909e-04  1.4413419723222800e-03  1.6194976578341534e-03  1.1923286361688560e-03  8.4039564735932703e-04  2.8159154603776982e-03  4.1570244271092933e-04  8.8463098633260486e-04  3.6535791620325945e-03  2.7199895125079995e-03  4.4705500794563653e-03  7.7979767349598656e-04  3.5323140985681904e-03  4.0281345971367291e-04  2.5938585024852722e-03  4.4073576534172272e-03  2.8515712607363806e-03  5.0351919659794161e-04  1.8353543179657871e-03  1.2868469326094434e-03  2.4713069205069150e-03  2.0942781822039986e-03  3.1722981970914660e-03  3.8769906073374155e-03  2.2228499628651178e-03  8.8282394409742494e-04  3.4796158439416186e-03  2.4450879087148190e-03  2.6959322827375832e-03  2.4169581435920006e-03  1.2191868445288812e-03  1.5566130194283663e-03  1.0064548543913567e-03  2.4974603150193907e-03  3.1371816779632964e-03  2.7658072548320456e-03  1.9560281822512855e-03  5.5141553619388354e-04  2.8795838778753421e-03  1.5409352753005736e-03  2.2514326807990242e-03  2.8685771048403189e-03  2.7697128368277270e-03  5.5293178840412204e-04  2.4156402641626164e-03  2.6852526616305068e-03  2.8312697157368344e-03  2.8183849398495126e-03  3.3332508401031800e-04  4.7325271929529169e-04  3.2063150483636364e-03  1.3957898277839568e-03  2.6493286480144579e-03  3.3427249292967558e-04  2.5560552892357866e-03  1.8671753583479806e-03  9.1240341483319666e-04  1.9454758175850770e-03  3.2677112583194500e-03  4.0160505382020621e-03  1.0205432141688752e-03  1.0737233417600605e-03  3.8485041201581113e-03  3.7852160108548527e-03  1.2322653204816856e-03  2.7794833603599590e-03  9.6486726211488915e-04  6.5777275791544714e-04  4.0799466969198856e-03  1.8234983885482719e-03  1.5456292079729385e-03  2.4151306861437748e-03  1.1123858692841514e-03  1.3168575489153210e-03  9.5137717548674427e-04  2.9169870496983824e-03  2.4516437131043489e-03  4.6160244201376595e-04  3.0344975281234926e-03  6.9190560390008351e-04  2.9203448874980408e-03  3.1350450876137487e-03  8.5148018713491645e-04  4.0301711724641492e-04  3.3116617186654726e-03  1.6799977551391274e-03  3.9304324492307509e-03  2.1039631324881215e-03  3.5369571059339494e-03  1.7873662900277634e-03  9.4464267998246843e-04  3.5085071368835103e-04  1.8043383574513543e-03  1.2910894860055976e-03  2.5710132351744104e-03  3.2406332700965312e-03  4.1848569342449885e-03  4.1473319272612450e-03  2.1226012532472734e-03  9.9479277628821837e-04  2.6409162711916556e-03  2.5486458591859528e-03  1.7060067626228851e-03  5.1414077351649495e-04  1.7590766738908600e-03  3.1692495596611901e-03  1.1905938324091371e-03  3.4261156435325332e-03  2.9806688405125035e-03  1.1353425472571863e-03  1.1147152526278243e-03  1.2887979060419283e-03  1.2271296192078462e-03  1.2304261281885648e-03  1.0401539169722334e-03  1.3258343486631321e-03  3.2146230190076741e-04  3.6509109174103910e-03  4.1421621638601282e-03  8.8379301273819506e-04  2.8566223201463795e-03  1.5537732206610630e-03  1.4852350192434167e-03  3.4723035639141610e-03  2.1139771414667302e-03  3.8077032388749116e-04  4.6109077188626847e-03  1.2105476194710864e-03  7.1565566517873245e-04  3.8783181233030956e-03  4.0687849184066604e-03  1.8183780005569146e-03  4.7144867686262537e-04  2.8449958241474451e-03  8.0165734720235497e-04  1.2876042746767429e-03  2.7714496618591261e-03  4.4887909899262038e-03  4.1932627802632877e-03  2.5406173388033133e-03  4.3803203734828801e-03  1.6327204290850824e-03  1.5345062026088628e-03  6.7560367511806994e-04  1.5388284784438348e-03  4.8236473849351731e-04  3.8170830092603583e-03  2.7146764090844283e-03  3.9704566508686374e-03  6.7014677283272722e-04  9.6629851994692317e-04  2.0471940314004027e-03  2.1022449118515969e-03  1.5290242456616225e-03  1.4170177023514053e-03  1.2463274797427128e-03  8.7613470995638999e-04  1.1183534277802638e-03  1.6949278595532976e-03  1.6322812888161554e-03  1.6514966300199896e-03  4.2842055509781076e-04  4.4614164002117970e-03  1.1005403425725984e-03  1.2786068424018395e-03  3.7448528437578836e-04  4.9880798523547175e-03  2.9794771691004757e-03  2.9527223041872219e-03  3.6792008491997675e-03  4.6540160235395485e-04  2.9434992831324958e-03  3.5600740480430204e-04  2.8226432642985723e-03  3.1770752382816098e-03  1.8734286246302144e-03  3.2672776623117149e-03  9.7039195712568722e-04  1.0843101632099280e-03  3.9461010783575969e-03  2.2554332151713853e-03  2.2101524979760197e-03  1.0470487096928905e-03  1.1571822165832922e-03  2.5453416043372699e-03  2.1475536458751289e-03  2.0070205094557298e-03  2.9266898890404230e-03  1.0696257871666707e-03  2.1799672042044143e-03  1.3117553156876778e-03  1.8647663916341720e-03  4.2406641279937293e-04  1.0286800396882832e-03  3.6246407499060784e-03  6.0044224975117967e-04  5.7159093516718628e-04  5.1056964904900117e-04  5.2880670539010575e-04  1.3902900599363660e-03  1.4265296280874607e-03  6.3965919940120941e-04  2.0651077277164301e-03  2.8122046269180817e-03  3.3212942122894376e-03  2.2851492033180258e-03  2.3245912089039033e-03  1.5096370655538986e-03  1.8066653645975046e-03  2.9045380752022614e-03  3.6544325693412097e-04  4.4440775742569244e-03  9.0730180547364601e-04  1.2991233380814920e-03  3.3741372989241438e-03  1.4397924447862281e-03  3.6320403547504660e-03  3.6890274942708626e-03  3.4702449467591107e-03  3.4699178238612252e-03  3.4003015153710962e-03  3.3334894090271171e-03  1.9160664760966973e-03  1.6567017375752370e-03  3.6138900804433389e-03  4.0973901305831487e-03  4.2999806892359323e-03  1.8391192437689022e-03  7.1097736744597513e-04  3.5781995875659370e-04  3.4721853408972329e-04  4.2097864266783056e-03  3.8309843612394693e-03  4.1069874101879742e-03  4.1524480494513245e-03  1.7583649805333011e-03  7.9783059893934704e-04  2.6439137608388731e-03  4.5922033566235103e-04  8.1486432325618093e-04  6.8439663829374098e-04  3.1362050816657145e-03  3.1476837441426517e-03  1.8564761814541756e-03  1.8722631615445125e-03  2.5404646781293080e-03  3.5401592412307547e-03  3.6905891359310314e-03  7.5122619413187509e-04  3.6070657380932522e-04  8.3170432023374269e-04  6.5334580747879005e-04  1.2153313561385898e-03  1.1926458527691782e-03  6.9980172269297665e-04  8.7409937043651440e-04  3.3323698233700795e-03  3.0897077141988204e-03  3.7687850267034170e-03  1.0548489122512935e-03  4.1794517722869356e-03  3.3998352114067575e-03  4.2762082059728189e-04  2.7856411569625473e-03  5.5840230247663927e-04  4.4471549950743329e-03  3.4815827706690831e-04  4.4335087388567397e-03  3.2554293091371374e-04  4.0970036137380249e-03  3.4101918510277270e-04  1.8513171577536965e-03  3.9327786576955005e-04  4.6684545372735009e-04  3.4588541360077026e-04  4.3277326231606870e-03  4.3884873397559013e-03  3.6854230832834427e-04  3.5344948010922390e-04  4.2584830301609783e-03  6.0679744199889274e-04  7.4449185786176113e-04  9.8717250502003374e-04  1.1411315502066249e-03  7.8861862850965908e-04  1.1684651845635166e-03  2.9301559575901736e-03  3.1015467382010725e-03  1.4556334182421430e-03  6.4052718949346140e-04  1.3524197317530090e-03  1.6126415842162387e-03  4.1790569004722324e-04  2.5426062585851002e-03  2.8484064543635636e-03  3.4454432387984834e-03  3.0212898758472983e-03  3.0629151772730888e-03  1.1361121242123540e-03  2.7761155774220828e-03  3.2213019915581791e-03  3.3700543895114261e-03  2.5077554491015255e-03  2.7770853509843417e-03  2.0993157868827916e-03  4.1204227060637931e-04  2.7079096780980101e-03  1.3855688169729034e-03  2.4441033210645773e-03  2.1477741405452511e-03  2.7398173227955683e-03  3.3045060462083427e-03  3.6603066359102848e-03  3.1292069526034456e-03  3.8503847375577303e-03  5.9809511696603320e-04  4.1276683966421489e-03  9.9499160265062773e-04  4.2655337849510479e-03  1.1996896720947886e-03  1.3804477902320243e-03  9.2766122065434883e-04  4.2014711110566118e-03  1.8613007422874992e-03  1.7974253619858775e-03  3.3889942814509621e-03  2.0199016954092481e-03  1.6898415897052680e-03  2.6615531256030619e-03  2.7234377303293014e-03  3.7457661972937665e-04  3.6014697088698373e-03  3.4010406660840422e-03  2.6632830147071914e-03  2.6203322370172326e-03  3.0378531326388666e-03  2.2264118060799621e-03  2.8945137446874827e-03  2.8513633161452358e-03  2.2889793090579078e-03  1.2872877909718061e-03  2.3893409504842757e-03  4.5615081950922898e-04  1.7173406884271123e-03  1.4597024834603566e-03  9.2602820796327829e-04  3.7181545859263370e-03  1.1848684826869051e-03  1.1539596364426711e-03  4.8368390885949179e-04  2.9613653687994095e-03  2.9465836080501697e-03  3.2428456708944978e-03  2.5178093135145205e-03  4.9440191001387187e-04  3.4005433353677248e-04  1.0146044038020006e-03  3.2117608651236703e-03  1.2413625194109162e-03  1.8689657011812274e-03  3.7500124808032627e-04  1.1058037151607286e-03  1.1285468343463668e-03  4.3324389537971556e-04  2.4136385177040863e-03  2.9876632269574175e-03  3.7773450268512318e-03  2.8441997577788015e-03  1.7955506864419566e-03  1.1952428902574867e-03  9.7372167813108371e-04  2.2410568583936777e-03  8.5691887659082415e-04  3.3393438991247554e-03  1.1189783685107751e-03  2.5486561138946943e-03  3.9909805711117437e-04  2.3937933717555139e-03  2.9272226933985458e-03  2.4924714451798201e-03  1.8801668184675652e-03  1.0525272932609367e-03  2.6265080981916693e-03  2.6413591538430418e-03  2.0025933848967256e-03  9.4089118464310182e-04  2.9131876845194648e-03  3.2508032157497970e-04  3.2759732816782218e-04  1.5391181275017738e-03  1.3137989364743780e-03  3.2856246537464697e-03  3.6621871980861255e-03  4.3205675990810244e-03  3.1576537789976310e-03  3.4589807626724109e-04  4.4939686350418144e-03  3.9439242022421871e-03  1.4730057537584830e-03  3.2102769548069190e-03  3.4504761041980431e-03  4.5600006723343937e-03  9.5823743683798638e-04  3.0166754837201749e-03  3.9424726041669619e-03  6.0133979200362804e-04  3.8101902074852427e-03  3.5309326418326556e-04  1.2830285983668364e-03  3.6748844180761004e-03  1.1273173366995058e-03  2.5329633120120712e-03  1.4406470095908452e-03  2.6412549134624402e-03  2.1671663984024416e-03  3.0889996647597709e-03  4.9295093702038547e-04  1.8229293770040023e-03  2.0593659248415394e-03  1.5475744627889692e-03  2.6345190929643529e-03  1.8692831850521676e-03  1.2907817589101339e-03  2.8044035018223610e-03  2.4422354673838157e-03  7.7679071910037535e-04  4.5639670211254724e-03  6.4527053345885092e-03  2.4114522840198620e-03  3.3582244001047557e-03  2.2640197796936863e-03  2.3745175043169650e-03  2.8200553077095676e-03  2.3329030596742342e-03  9.0983580723660677e-04  2.8781136856193957e-03  4.9438294391223681e-04  5.5662823381464092e-04  3.6763081373160636e-03  2.1248564816563277e-03  2.1677359526980347e-03  2.8394475942273558e-03  2.6310585955161428e-03  3.9367498250309297e-03  7.3756305498453407e-04  2.0463622259662352e-03  3.1966885576748924e-03  3.1027428777935170e-03  3.5374686785184131e-03  3.9688749918482275e-03  1.5545361620696956e-03  5.8916920923264907e-03  3.0344298946340760e-03  2.7794132308850061e-03  3.9737610870222541e-03  3.5173506864731125e-03  4.1509175657308195e-03  1.1391738341686394e-03  3.0613504682057481e-03  3.4625539307447514e-03  4.8895559897138216e-04  1.0299371419661826e-03  2.8886722870263798e-03  6.5381921147402268e-04  2.6042667874117101e-03  4.1607750514854636e-04  1.5684084200519456e-03  2.9137041242324169e-03  3.9918408755152762e-04  1.1834799456791338e-03  8.7312548340296348e-04  3.9719983663853334e-04  2.9088841989287320e-03  3.0727594436101473e-03  2.6538029404435124e-03  2.3807902242089854e-03  2.5723783248060524e-03  4.3709243296763799e-03  2.2645603701747573e-03  2.7695975751837647e-03  1.5032965178584140e-03  8.2663546346733422e-04  1.0543304406399061e-03  1.0737907597495192e-03  1.3450615786089394e-03  2.0282535999800125e-03  1.3464142225561432e-03  1.0802232667929178e-03  3.9267418500624673e-04  1.9783850553285469e-03  3.4505604204998364e-03  3.4062052635255068e-03  3.5943976660942185e-03  3.3967435784193565e-03  4.4003538570087340e-03  4.3450257015693406e-03  9.5440835771388435e-04  3.4931518036291135e-04  3.7200149642276667e-04  3.2803372321882113e-04  3.2718218496855514e-03  3.5128867925660973e-04  8.2401448805582934e-04  4.4390651590485468e-03  1.4001331896897563e-03  1.8470827783912168e-03  5.1223584996385331e-04  5.9342450909540304e-04  3.0562989662320994e-03  3.1448700729861251e-03  3.0914867787602378e-03  1.4231500470749761e-03  8.4520159921663146e-04  3.1447580798369830e-03  7.7036076885164000e-04  2.8622645734935094e-03  4.1217906459853305e-04  3.7701454238789654e-04  1.6228096461341239e-03  2.1893217722404076e-03  3.9062032480115891e-03  2.3219649016752294e-03  2.6895569516714331e-03  2.3666754717597631e-03  3.2146836410122353e-03  9.2165802312074599e-04  1.7336857958395672e-03  2.0097698027969325e-03  4.3427609984144694e-03  3.0250346196403241e-03  1.1955331007459684e-03  1.1425346703097855e-03  4.4001313170956577e-03  8.7182859941193876e-04  3.0340682670646430e-03  1.8563293446324271e-03  1.4819333041093240e-03  3.6182714786022543e-03  2.9819338734579761e-03  1.4798442765252776e-03  3.6157535863728604e-04  1.6494831948809256e-03  3.5012765857645139e-04  3.2324150207335115e-03  2.0977413440334512e-03  3.8013310635397137e-03  2.2958224585064376e-03  1.1645076963039