<?xml version="1.0"?>
<VTKFile type="UnstructuredGrid"  version="0.1"  >
<UnstructuredGrid>
<Piece  NumberOfPoints="2446" NumberOfCells="4585">
<Points>
<DataArray  type="Float64"  NumberOfComponents="3"  format="ascii">0 0.41 0  0 0 0  2.2 0 0  2.2 0.41 0  0.2404508497187474 0.2293892626146237 0  0.25 0.2 0  0.2404508497187474 0.1706107373853764 0  0.2154508497187474 0.1524471741852423 0  0.1845491502812526 0.1524471741852423 0  0.1595491502812526 0.1706107373853764 0  0.15 0.2 0  0.1595491502812526 0.2293892626146237 0  0.1845491502812527 0.2475528258147577 0  0.2154508497187474 0.2475528258147577 0  1.1 0 0  1.1 0.41 0  0 0.205 0  0.55 0 0  0.55 0.41 0  0.275 0 0  0.275 0.41 0  1.65 0.41 0  1.65 0 0  0.8250000000000001 0.41 0  0.8250000000000001 0 0  1.375 0 0  1.375 0.41 0  1.925 0 0  1.925 0.41 0  1.5125 0.205 0  1.7875 0.205 0  0.6875 0.205 0  0.9625000000000001 0.205 0  1.2375 0.205 0  2.2 0.205 0  0.4687002074688797 0.2068568464730291 0  1.99375 0.2152743902439024 0  2.0625 0 0  2.0625 0.41 0  2.2 0.3075 0  0.4125 0 0  0.4125 0.41 0  1.7875 0.41 0  1.375 0.1486128048780488 0  1.5125 0 0  1.7875 0 0  1.5125 0.41 0  0.8250000000000001 0.2613871951219511 0  0.9625000000000001 0.41 0  0.9625000000000001 0 0  0.6875 0.41 0  0.6875 0 0  0.1375 0 0  0.1375 0.41 0  1.2375 0 0  1.1 0.1486128048780487 0  1.2375 0.41 0  1.65 0.1486128048780487 0  1.126715909090909 0.2793064024390244 0  1.676715909090909 0.2793064024390244 0  0.8517159090909092 0.1306935975609756 0  1.348284090909091 0.2793064024390244 0  0.34375 0.3032389320646208 0  1.894702181800738 0.1282910975492754 0  2.092797818199262 0.1282910975492754 0  1.85625 0.3075 0  0.61875 0.3075 0  0.61875 0.1025 0  0.3648540804333487 0.1240075933101478 0  0 0.3075 0  0 0.1025 0  2.099172119769978 0.25625 0  0.48125 0.09238439620688085 0  0.5781001037344399 0.2059284232365146 0  0.48125 0.3196743479159776 0  0.7265881057911006 0.3055240343720796 0  1.99375 0.08395950269330846 0  1.459960956013612 0.3075 0  1.569025960719943 0.2986889805672169 0  0.75625 0.08213100772579164 0  1.03125 0.3278689922742084 0  0.923871252904788 0.3078247185783941 0  1.959375 0.3126371951219512 0  1.749222215368287 0.1025 0  1.275777784631713 0.1025 0  2.2 0.1025 0  1.225938124459196 0.3075 0  1.550777784631713 0.1025 0  1.000777784631713 0.1025 0  1.44375 0.07430640243902442 0  1.16875 0.07430640243902437 0  1.899250267340833 0.2229966846119207 0  0.1020898364287272 0.3140258291809757 0  1.766482954545455 0.2934032012195123 0  0.3405058858996321 0.2119987970531874 0  0.7710785630958338 0.1710968191298857 0  1.046078563095834 0.2389031808701144 0  0.2 0.3400647632937836 0  1.421109702350723 0.2261157654379721 0  0.2800464974185557 0.08982544815605742 0  0.098916018031319 0.09171660955420841 0  2.13125 0 0  2.118919042110979 0.3422084711244843 0  1.30625 0.41 0  0.89375 0 0  1.597888256393107 0.2173787389261347 0  0.20625 0 0  1.829299675393195 0.07400700849299596 0  1.71875 0.41 0  1.16875 0.41 0  2.038220665644273 0.332420740103091 0  0.34375 0 0  0.417496017710808 0.2696595573092803 0  0.2 0.07687845740457822 0  0.9295982307099278 0.1343158415898188 0  0.07390688010811153 0.1697064032433452 0  0.5238366813727013 0.2578302467013575 0  0.05452951551825875 0.25625 0  0.5229630068078351 0.1548816096928243 0  1.452769549894695 0.1548122580621249 0  1.369219062229598 0.07430640243902442 0  1.30625 0 0  0.8504409521244898 0.3356935975609756 0  0.8821881244591965 0.205 0  1.720943423819132 0.1714577452753128 0  1.157188124459196 0.205 0  1.094219062229598 0.07430640243902437 0  1.03125 0 0  1.304056576180868 0.1714577452753128 0  1.67579304192913 0.07430640243902437 0  0.2751941921308361 0.3346083473122598 0  1.209670467133757 0.1362100266964769 0  1.025335513626278 0.1700681449722324 0  0.7562500000000001 0.41 0  1.58125 0 0  0.7567170593862014 0.2409196493502535 0  0.6926714215682891 0.1272249611432207 0  0.4139715849905988 0.3397932387114203 0  0.9840787304190477 0.2717749043358119 0  0.06875000000000001 0.41 0  0 0.35875 0  0.9281250000000001 0.06276726142697993 0  0.5507396469029935 0.3219409231578227 0  0.5504468037989405 0.09136885600634273 0  1.58125 0.41 0  1.631724228912893 0.3381867502687533 0  1.825608881788174 0.14499488549201 0  1.85625 0 0  1.44375 0 0  1.44375 0.41 0  1.85625 0.41 0  2.13125 0.41 0  0.7562500000000001 0 0  0.89375 0.41 0  0.4812500000000001 0 0  0.34375 0.41 0  0.4812500000000001 0.41 0  0.20625 0.41 0  0.06875000000000001 0 0  1.16875 0 0  0.61875 0 0  0.61875 0.41 0  1.03125 0.41 0  1.71875 0 0  1.99375 0 0  1.99375 0.41 0  1.340625 0.3489494290853124 0  1.134375 0.3489494290853123 0  1.700180620188976 0.3438659752031281 0  2.135782184673599 0.07126652247502523 0  1.668441847249787 0.2129203728327609 0  1.295782514339747 0.2378437748815763 0  0.8233075729931248 0.06842334294821524 0  1.409375 0.3520314716057996 0  0.403505597322782 0.182067236678212 0  0.378125 0.05794951541303489 0  0.3043468223249023 0.1518321115979534 0  2.129248544730567 0.1906135162504124 0  2.060771381434487 0.1989445750470348 0  2.013252586573865 0.1496169464686054 0  1.942766402200229 0.1734448904596831 0  1.895522487186454 0.06076163953489683 0  2.069553871656643 0.06605731020975725 0  1.274680914880868 0.3520219391081363 0  1.614713220494657 0.09473434380863296 0  0.7899021319497519 0.3149123934144827 0  0.69518737419149 0.0634051089053758 0  0.2971740475496061 0.2592172353407536 0  1.72990325744076 0.2380068107952482 0  1.356580098625191 0.2120393231351682 0  2.034370752044885 0.2668681600792073 0  1.51768709249349 0.3426260931494756 0  1.561883724969884 0.1650446847858835 0  1.197344062229598 0.2523725417393646 0  1.804085235518364 0.3468178408964637 0  1.817887819205233 0.2589243285818559 0  1.905897727272727 0.3485060975609756 0  0.6719798073392919 0.2688965171178177 0  0 0.05125 0  0.653125 0.35875 0  0.6396896119294488 0.1627615407790282 0  0.4274150154087412 0.1242548552168279 0  1.192836486056382 0.3562350748565544 0  0.8279124365364005 0.183856489168822 0  1.097485222388854 0.2083571153401724 0  1.28257088594801 0.2944411014911587 0  1.474860187679412 0.2504218616229368 0  1.406767003493824 0.2829282258560709 0  0.446875 0.04619219810344041 0  0.515625 0.04585361801037557 0  0.592043440706648 0.05125 0  1.845656689180403 0.1998310418452388 0  2.144958525570388 0.2909790873294231 0  0.6171090763650112 0.2492366900333857 0  2.2 0.15375 0  0.5145586920831158 0.3648371739579888 0  1.57794966442982 0.3540357145964566 0  0.721875 0.3633107922168974 0  0.0496154796471391 0.333125 0  0.5843750000000001 0.3662560860076676 0  0.5810878747760798 0.1474002776121195 0  1.508991196088596 0.1421783375065625 0  0.8840670607017558 0.2640994375393898 0  0.09776612425612034 0.2204896805326566 0  1.50436820029908 0.06143401634903343 0  1.223857000523521 0.0823554862453532 0  1.153316824384777 0.1289850171317837 0  2.148922302309752 0.1258841779285271 0  0.309375 0.04312325590431198 0  1.621993280276081 0.2841214267927899 0  1.550118654119087 0.2461998729100966 0  1.327182649291491 0.1216967252533594 0  1.051977450479407 0.1221382572915816 0  1.753125 0.04556020050186112 0  1.271875 0.04556020050186116 0  0.9816084133102366 0.05126138213476004 0  1.039051841454368 0.0572224914831029 0  0.9719230514536006 0.3480477870845102 0  1.94956388244759 0.1180512551534177 0  1.949997712993411 0.04965831614304109 0  1.771961817615021 0.1530278789497521 0  1.909246823951428 0.2812757146784527 0  0.2459536687882397 0.04668633953831142 0  1.948575539857022 0.2445328248721197 0  1.697271520964565 0.1233917627620729 0  0.7964897648514618 0.1211426571931604 0  1.065625 0.3689344961371042 0  1.085849084308977 0.3170853572226867 0  0.4702981435440001 0.260434880697798 0  1.577403511714593 0.05463601888079143 0  0.05622663515370135 0.05493816910862376 0  0.3267207591099919 0.3566194660323104 0  0.9003051618565143 0.3564049499960621 0  1.751571320346033 0.3651102912045228 0  0.1583785085108421 0.2994699345738728 0  0.1455283439499995 0.3542795598723423 0  2.2 0.35875 0  0.2347662494194072 0.298325008655211 0  0.1527284455616188 0.1065771775690181 0  0.1382139529076665 0.05427454456341477 0  0.8749341636311069 0.05110114999892954 0  0.643661668713109 0.05693499781019222 0  1.466879772203159 0.3611261772912453 0  1.990280163552011 0.3564754268533217 0  1.17471064520912 0.2990917256188288 0  0.5202693090594349 0.206382495511728 0  0 0.25625 0  2.2 0.25625 0  2.2 0.05125 0  0 0.15375 0  1.853978576207987 0.35875 0  0.9787513713939683 0.1487523696999336 0  0.240625 0.3722153812029779 0  1.515638456102889 0.2882700110184686 0  0.09048297387599738 0.3637717362208066 0  2.150453692751374 0.2387066338105111 0  1.323782677156475 0.04897634338873398 0  0.8074131292871642 0.3624701995505916 0  1.409375 0.03715320121951221 0  1.406484531114799 0.1087852750766809 0  1.134375 0.03715320121951218 0  1.627401732573545 0.04552157221025036 0  0.1170173172005315 0.1427610859166811 0  2.045405893604797 0.1105340662939892 0  1.255408269734577 0.1577307500159216 0  2.028125 0.03707597992059326 0  0.4743610090857199 0.1421513964721819 0  0.9354010469015898 0.250631300585664 0  0.04420832937638274 0.128125 0  0.8922386349349938 0.0992956419364831 0  0.1197849154434487 0.2663398672460083 0  1.248258025468107 0.2565907092181813 0  0.3746885856929528 0.370723531618974 0  1.203125 0.0366132337404304 0  0.5724622277005015 0.2751253816079333 0  0.3365425205162783 0.08395777655057959 0  2.072662025974815 0.2975086504196739 0  0.4581080832182547 0.3648371739579888 0  0.3874522734668214 0.2295447548840689 0  0.7827853612484443 0.04106550386289586 0  1.887722846421017 0.1760882698830035 0  1.472640588990488 0.1118278026240017 0  1.865937103925594 0.2604137786483804 0  1.463913572748262 0.2030442564990043 0  1.376426316059077 0.3186741374914345 0  0.6641993820150034 0.3141688596240831 0  0.2943117490824315 0.2130987422685822 0  0.3478153998082709 0.1666571081082676 0  0.3427990510599805 0.2575950027870776 0  0.7997118993855807 0.2216171933356366 0  
[...]
<PointData  Scalars="f_10-1"> 
<DataArray  type="Float64"  Name="f_10-1"  format="ascii">9.3027727117890710e-04  3.5288992634794708e-04  1.2507393440782514e-03  2.8088563468250108e-03  2.3780162199452701e-03  1.7549910543847114e-03  1.0226746621656924e-03  5.9792223380757202e-04  5.4859425687445000e-04  5.9410265791178538e-04  6.9234940869077315e-04  1.0270326858193024e-03  1.7381184243583289e-03  2.3496819252301470e-03  7.0559188294681114e-04  3.7639769093638013e-03  5.7969694794532758e-04  3.9191578149389093e-04  4.3952249549858271e-03  3.7597058600837534e-04  4.3199946855260280e-03  3.2112653928433508e-03  1.0343433374739985e-03  4.0914525496795456e-03  5.2042459872010693e-04  8.8319169571405003e-04  3.4689019626917080e-03  1.1582202953825638e-03  2.9902688567735665e-03  2.1401326582543598e-03  2.1005024356541831e-03  2.2069164337327560e-03  2.2009193585872814e-03  2.1747505062577909e-03  2.0392303408131810e-03  2.2148552579540283e-03  2.1426436721724831e-03  1.2117243132183453e-03  2.8898977581997966e-03  2.6125483389140046e-03  3.7977380480041329e-04  4.4812810120550680e-03  3.0968794697429840e-03  1.5890760394214134e-03  9.6327151527263904e-04  1.0988686474966384e-03  3.3353841020978487e-03  3.0766357616202069e-03  3.9251449684532874e-03  6.1098007526454916e-04  4.2545090392099973e-03  4.4102616800856655e-04  3.6133575539505972e-04  2.6739271048644457e-03  7.9881188400754487e-04  1.5118144038513818e-03  3.6104899094022663e-03  1.6404280462556759e-03  3.0697722630152477e-03  2.7281766987809278e-03  1.1871561878816007e-03  2.9208341431427040e-03  4.2440300447804469e-03  1.5410027911385762e-03  1.5734747407149196e-03  2.8007152620348153e-03  3.9083263420276997e-03  7.0370436188674115e-04  5.3440272648214962e-04  7.6960087070518954e-04  4.1460412762380199e-04  2.3853573261726755e-03  5.0102221695956701e-04  2.2147621572433792e-03  4.2291112570790879e-03  3.7382072813591043e-03  1.3408847819112528e-03  3.0662246555719810e-03  2.9309999212386896e-03  6.8768963482615357e-04  3.5924735816277534e-03  3.5347625201922884e-03  2.7629469597170160e-03  1.3533416996371001e-03  1.1705021575637703e-03  1.4649951857176402e-03  3.2504410321999456e-03  1.2863241980790537e-03  1.0175312042982831e-03  1.0819786297066878e-03  9.3134435764866542e-04  2.2197672381862278e-03  4.8450991519856440e-03  2.7730876290279760e-03  2.3647121074356165e-03  1.6644196939479816e-03  2.6411436528891484e-03  5.3660451448137260e-03  2.3687463345048003e-03  4.5236482086185719e-04  4.1133937122139627e-04  1.2341721133975960e-03  2.7763898157490657e-03  3.5376696442624587e-03  5.6451636379141413e-04  2.2415036665411037e-03  3.7052207898393943e-04  1.2487501654863805e-03  3.1524697165673148e-03  3.6862504425967803e-03  2.7951925507664101e-03  3.7898556172286509e-04  3.7407964982057286e-03  4.3440554233105860e-04  1.2770939993348681e-03  5.1555951925678293e-04  3.3439251512594071e-03  7.0603124799039458e-04  1.1564859602697884e-03  1.6610899890870140e-03  1.0446980033200037e-03  8.3934404307462287e-04  3.8493240807367154e-03  2.2051365248268538e-03  1.8305647702565411e-03  2.1834751520039223e-03  8.8637768912563995e-04  6.6021271777430177e-04  1.8031902373946719e-03  1.1886201511869202e-03  4.7498158449658994e-03  1.4238198730495443e-03  1.7403010436305242e-03  4.1758866458581866e-03  1.0007340383607068e-03  2.8129345657023457e-03  1.0151003530080394e-03  4.4283259439158451e-03  3.0909829536258852e-03  1.3005066953798085e-03  8.5540021463049705e-04  7.1520707127789010e-04  4.1425853016520695e-03  5.5889270837993659e-04  3.2722686845889901e-03  3.1018551561154896e-03  1.6386596420654598e-03  1.1293865889223124e-03  9.2224207823599991e-04  3.4002913975400596e-03  3.0412764897751444e-03  2.8427097677591285e-03  4.7746529345287398e-04  4.0101888908990390e-03  3.8203866873029457e-04  4.4650408092883568e-03  4.4491616167510115e-03  3.8105977653241992e-03  3.5469010601981506e-04  7.5429664627953933e-04  4.1199134710303350e-04  4.3282316055985341e-03  3.8456775796368659e-03  1.0668023585730826e-03  1.1841319514266527e-03  2.9383169797061988e-03  3.4022976070619509e-03  3.6065026014361684e-03  3.0722418312309208e-03  1.3375445080393415e-03  2.1872892428742166e-03  2.5317693159769574e-03  6.6443632765560601e-04  3.3469264739688091e-03  1.4757654536273026e-03  4.0398754693812220e-04  7.1287010374802579e-04  1.9545852847942260e-03  2.0174716442362445e-03  1.6898595532143382e-03  1.8477693438443458e-03  1.2282966825984422e-03  1.3018211064412834e-03  3.4762738682396397e-03  1.2642589926667811e-03  3.7549053172299643e-03  5.4874021165995696e-04  3.2244250829874476e-03  2.3842079182383531e-03  2.2363074242182637e-03  2.4760124947632166e-03  3.2148473541836076e-03  1.7669726125027580e-03  2.7337127581530869e-03  3.0038791477066296e-03  2.5140639806906953e-03  2.9342946746578461e-03  3.3342942408296473e-03  3.6885737669771593e-04  4.2213070551042169e-03  1.4394099017950208e-03  6.0536152167812681e-04  3.5773134431930746e-03  1.8796681311318386e-03  2.2318904893124103e-03  3.0993535762112003e-03  2.5885785153196210e-03  2.9151267482468552e-03  3.9640463339662003e-04  4.1072130215354455e-04  4.4746529105314759e-04  2.0513489853376784e-03  2.5594445595287919e-03  3.0662727459036705e-03  1.7249809479595187e-03  4.3932061582763584e-03  3.2062533232506516e-03  4.1546473703672005e-03  1.0752524145977141e-03  4.3233258625497428e-03  1.1356174895883870e-03  1.5620714240156485e-03  3.0655539414657742e-03  7.0927458173868866e-04  1.0596173823150474e-03  1.0092667246228882e-03  1.3332688648038037e-03  1.5684869236202033e-03  3.9409191171695335e-04  2.7944260776049130e-03  2.5190329845138238e-03  1.3389870055236276e-03  1.2194021961707483e-03  1.1267962107345039e-03  8.7488205244056524e-04  7.0261653072808592e-04  7.6720843299073226e-04  3.7815710006670225e-03  1.4920554089917907e-03  1.2164322079327248e-03  1.6896559600801354e-03  2.6212646924054059e-03  3.9735305267376002e-04  2.3616367129344687e-03  1.4668783806329800e-03  1.0450854128174647e-03  3.7597951815309723e-03  3.4532072007377088e-03  3.4830304374157605e-03  1.0732876009016917e-03  3.7250507486331073e-04  4.5713004869072822e-03  3.9094176241586294e-03  3.0936599161562940e-03  5.6493987672492614e-03  4.7144544114619642e-03  2.7703177159234343e-03  4.0458220465084847e-03  4.5577501535133300e-04  3.8718189010765941e-04  6.2656280746872415e-04  4.8955758370674369e-04  3.3257147687891430e-03  2.8966858245389878e-03  3.2239719394058768e-03  2.2150033255436035e-03  6.9233339493837860e-04  2.3529738193307473e-03  1.2998572939489411e-03  4.8562668564913509e-04  2.9988246907775235e-03  1.4653574306131782e-03  4.5103705764654237e-03  2.8887166764243262e-03  1.9762152730829537e-03  2.2601960292159143e-03  9.1607698154560178e-04  4.0464113870404663e-03  9.3741010601065724e-04  1.2708724288228400e-03  7.6468069750614638e-04  1.0710397555811324e-03  4.8929694261649274e-04  1.4718243175420702e-03  1.6517632295280380e-03  1.2220229228958285e-03  8.7339396778842305e-04  2.8502092667596663e-03  4.4889299288178764e-04  9.1649027721155487e-04  3.6890347821367008e-03  2.7539867574536735e-03  4.5067634649331749e-03  8.1061145106273266e-04  3.5674792262263533e-03  4.3545325211935857e-04  2.6276235906774149e-03  4.4434361426434945e-03  2.8863342886557932e-03  5.3495125745717492e-04  1.8671539431100476e-03  1.3180929828023854e-03  2.5046873964923474e-03  2.1270847637270300e-03  3.2070074291611367e-03  3.9124800741749269e-03  2.2573146366167830e-03  9.1631014382663641e-04  3.5148269806910427e-03  2.4790830710297823e-03  2.7298204827693236e-03  2.4502223813240346e-03  1.2487790199004385e-03  1.5897679345458784e-03  1.0388864522282023e-03  2.5313168270404587e-03  3.1718245950157695e-03  2.7999471178629886e-03  1.9886637549024117e-03  5.8499077158314717e-04  2.9142024037273851e-03  1.5724649307959624e-03  2.2854292264710111e-03  2.9030811521291366e-03  2.8037995455943853e-03  5.8761178096683334e-04  2.4488810959827196e-03  2.7193742969686095e-03  2.8658330587917986e-03  2.8528392381053790e-03  3.6533519399000114e-04  5.0475451977157685e-04  3.2412814562672466e-03  1.4266339795834127e-03  2.6832111899283205e-03  3.6619575941052685e-04  2.5897306677826800e-03  1.8999275402238778e-03  9.4270184089160114e-04  1.9778157530049817e-03  3.3027379945496840e-03  4.0517497395178995e-03  1.0505588746386415e-03  1.1038923757549558e-03  3.8840591561310344e-03  3.8206826966665336e-03  1.2617622883914711e-03  2.8139341116894144e-03  1.0020762701003104e-03  6.8987951309596883e-04  4.1156786754074845e-03  1.8566069351170892e-03  1.5784518491626257e-03  2.4484347699610478e-03  1.1424324402874162e-03  1.3473405509758735e-03  9.8158696817059036e-04  2.9515790462710874e-03  2.4860828844594568e-03  4.9511950202636820e-04  3.0692883317451325e-03  7.2288681574580495e-04  2.9547400099901870e-03  3.1698769685244367e-03  8.8310474091569079e-04  4.3538021000742071e-04  3.3484993881935585e-03  1.7111641589976647e-03  3.9660567622984682e-03  2.1367012265742762e-03  3.5721926718876086e-03  1.8187971668011645e-03  9.7511375424460666e-04  3.8301308659330607e-04  1.8371906392943551e-03  1.3246148859029497e-03  2.6046438698842061e-03  3.2754676949711728e-03  4.2205273127104035e-03  4.1830105860561732e-03  2.1563261087512355e-03  1.0262479394211026e-03  2.6750700774532859e-03  2.5824657951854990e-03  1.7386044730259246e-03  5.4841242442472157e-04  1.7903449894105484e-03  3.2039367415426672e-03  1.2203922305669321e-03  3.4611296903150662e-03  3.0153997840122837e-03  1.1653013600859447e-03  1.1444589350120291e-03  1.3190675610485778e-03  1.2581680893749088e-03  1.2610223533685630e-03  1.0703326166447004e-03  1.3567906263666791e-03  3.5333276138069502e-04  3.6861766122663806e-03  4.1777137862086785e-03  9.2088352461054917e-04  2.8911515403218435e-03  1.5856529128655391e-03  1.5183934946359303e-03  3.5073660455749250e-03  2.1501567756181997e-03  4.1254156697994449e-04  4.6464321056397485e-03  1.2409382717771050e-03  7.4771692093457702e-04  3.9138718649913504e-03  4.1044829521641084e-03  1.8506403923483200e-03  5.0529874415890339e-04  2.8792106249497882e-03  8.3347738175535400e-04  1.3176327384791750e-03  2.8054769980697808e-03  4.5251664599502070e-03  4.2298936911861190e-03  2.5742114735436417e-03  4.4167466908690061e-03  1.6661927824122289e-03  1.5681218135600642e-03  7.0826779498648067e-04  1.5723123315376827e-03  5.1549104570552528e-04  3.8524903005869551e-03  2.7491779225725568e-03  4.0060937359602802e-03  7.0616880714229882e-04  9.9664494027210376e-04  2.0796387238485661e-03  2.1352627224750405e-03  1.5603051485888770e-03  1.4488705301559780e-03  1.2777101226604131e-03  9.0672862102420568e-04  1.1501216886524333e-03  1.7266608116484796e-03  1.6644300199619416e-03  1.6827016105989496e-03  4.6176623272294314e-04  4.4974013801712294e-03  1.1320407712049824e-03  1.3103120528724671e-03  4.0712901473371652e-04  5.0240438200207767e-03  3.0139234850129005e-03  2.9871469231027691e-03  3.7145062961491293e-03  4.9900380331469572e-04  2.9785864548282216e-03  3.8840070888591791e-04  2.8572793455666542e-03  3.2119680166278037e-03  1.9056622307147728e-03  3.3022689505029013e-03  1.0029959708900244e-03  1.1141404993440572e-03  3.9816759014798869e-03  2.2882289610733305e-03  2.2428313776288182e-03  1.0781699467834955e-03  1.1910136315414666e-03  2.5789841596385557e-03  2.1800235031833024e-03  2.0390464350378418e-03  2.9611254234825544e-03  1.1002240989228520e-03  2.2133857800405447e-03  1.3439944531169657e-03  1.8978204093845932e-03  4.5561941154168462e-04  1.0595238261643847e-03  3.6599288150337881e-03  6.3158860934061918e-04  6.0280038729745725e-04  5.4172792239638224e-04  5.6011579120644197e-04  1.4203716917121083e-03  1.4568214990216075e-03  6.7070454874608660e-04  2.0974329631026686e-03  2.8466937282392566e-03  3.3562220284249025e-03  2.3185269376735772e-03  2.3583085162082800e-03  1.5406509441421011e-03  1.8384966919356828e-03  2.9391682433871614e-03  3.9765191644218468e-04  4.4802405855569136e-03  9.3910758950955554e-04  1.3329589926468555e-03  3.4090805232879608e-03  1.4726388918038812e-03  3.6673769669390449e-03  3.7244444279980280e-03  3.5054247510436401e-03  3.5051405055835779e-03  3.4354098907590051e-03  3.3683866138731087e-03  1.9485855074413189e-03  1.6877067766718861e-03  3.6492419159241062e-03  4.1331593920439372e-03  4.3359179529679050e-03  1.8732165972407226e-03  7.4411789509924383e-04  3.8982220782677907e-04  3.7910596506795635e-04  4.2455884700125322e-03  3.8664112790111199e-03  4.1427016488273707e-03  4.1882238913039964e-03  1.7900132846124755e-03  8.2858483672581618e-04  2.6779791700475854e-03  4.9141011620955940e-04  8.4757783100364672e-04  7.1681351150984680e-04  3.1708652513782218e-03  3.1825923746522382e-03  1.8882141110663859e-03  1.9040078043871987e-03  2.5740328736254614e-03  3.5754449279203010e-03  3.7259866578267494e-03  7.8207168561737392e-04  3.9257901100190322e-04  8.6219145098135100e-04  6.8421813453831604e-04  1.2446990358768552e-03  1.2221035427220424e-03  7.3057593503457864e-04  9.0449504376144364e-04  3.3674596008552303e-03  3.1245541687840300e-03  3.8042718448113443e-03  1.0847804736262348e-03  4.2152949983938186e-03  3.4349908083781550e-03  4.5898574250526747e-04  2.8201493125966847e-03  5.8946718667436465e-04  4.4834359433151274e-03  3.7995164332897647e-04  4.4696794916268415e-03  3.5741722845932883e-04  4.1336155554456125e-03  3.7296803867587267e-04  1.8883958237820170e-03  4.2474438129083252e-04  4.9810412596453717e-04  3.7783287042398743e-04  4.3637287043468255e-03  4.4245662130229912e-03  4.0011590931868354e-04  3.8513332309567127e-04  4.2944035234321037e-03  6.3776845742271378e-04  7.7516633920258300e-04  1.0172852084804757e-03  1.1707752729312724e-03  8.1919821508604038e-04  1.1980188860732065e-03  2.9648342101116815e-03  3.1363599681911072e-03  1.4862240116790496e-03  6.7223925184346453e-04  1.3838662056305658e-03  1.6450395466169436e-03  4.5049710465395744e-04  2.5762845627002552e-03  2.8825824107667521e-03  3.4805055009741888e-03  3.0557897089644377e-03  3.0974757095792202e-03  1.1659213397963168e-03  2.8112839328521904e-03  3.2561280472926941e-03  3.4051550798600964e-03  2.5412347512909161e-03  2.8112370125919234e-03  2.1319105633246281e-03  4.4497258277086999e-04  2.7422977552648531e-03  1.4163170048215083e-03  2.4774553216714537e-03  2.1808268476214538e-03  2.7738941181686483e-03  3.3395419366721835e-03  3.6955786019263505e-03  3.1638315783318574e-03  3.8859249193660323e-03  6.3319527997345189e-04  4.1631690481266264e-03  1.0252179700759850e-03  4.3014504932549595e-03  1.2293177034369681e-03  1.4106566390611531e-03  9.5923469720031094e-04  4.2373236365052889e-03  1.8938110778835072e-03  1.8328250198444086e-03  3.4240022447120347e-03  2.0521334379056681e-03  1.7212345629995440e-03  2.6984800694963259e-03  2.7576004720849616e-03  4.0710467380420496e-04  3.6366897697694515e-03  3.4360591618543827e-03  2.6974210488877213e-03  2.6541539207310429e-03  3.0726108845920102e-03  2.2598532019261646e-03  2.9289199950809576e-03  2.8855832058936751e-03  2.3219245614054581e-03  1.3174782981667337e-03  2.4225347642012579e-03  4.8861522080754399e-04  1.7502586509789107e-03  1.4911189390652932e-03  9.5811803586663116e-04  3.7535090865799549e-03  1.2156527089464979e-03  1.1845248459074816e-03  5.1751154340145156e-04  2.9960433228590619e-03  2.9815082232057949e-03  3.2778226445948871e-03  2.5525463780102695e-03  5.2770846985626023e-04  3.7208924458379011e-04  1.0473778747864108e-03  3.2467014846433574e-03  1.2732626959610373e-03  1.9012683932632197e-03  4.0741611407932196e-04  1.1369684550461094e-03  1.1606228612350408e-03  4.6471522242811183e-04  2.4478216570461434e-03  3.0223731442171184e-03  3.8127359568771611e-03  2.8785706221289508e-03  1.8281444366495402e-03  1.2275614168772789e-03  1.0039802137405223e-03  2.2739026958933394e-03  8.8829172701758549e-04  3.3742605548989857e-03  1.1538913931832375e-03  2.5822202893048358e-03  4.3073122958504673e-04  2.4272861196417790e-03  2.9615377487736678e-03  2.5261800491838721e-03  1.9123328611413400e-03  1.0832582523749000e-03  2.6602518600036019e-03  2.6751475173877521e-03  2.0346526102971631e-03  9.7125118008733644e-04  2.9478150041806492e-03  3.5701397067570528e-04  3.5956707540023882e-04  1.5707515165792601e-03  1.3442068372879132e-03  3.3204887974333614e-03  3.6980728058658798e-03  4.3564693871000343e-03  3.1924289865496299e-03  3.7794974279269447e-04  4.5304653194844493e-03  3.9794328831888031e-03  1.5037028950169247e-03  3.2452361213999841e-03  3.4856531192983902e-03  4.5959254321852215e-03  9.8931210869926899e-04  3.0514224692698320e-03  3.9780979550473917e-03  6.3653281370525854e-04  3.8455803449768161e-03  3.8509561669338214e-04  1.3128844222031067e-03  3.7101713589012633e-03  1.1573308514692628e-03  2.5666935605022988e-03  1.4719109060077221e-03  2.6750562658545609e-03  2.1996734584349732e-03  3.1235661531997401e-03  5.2501158656755693e-04  1.8557633062744534e-03  2.0924981625351840e-03  1.5804606397278082e-03  2.6682703270384674e-03  1.9028780655699869e-03  1.3205107516455615e-03  2.8386323089467339e-03  2.4755603541970904e-03  8.0815421151814702e-04  4.6006087856319180e-03  6.4889062801638999e-03  2.4446837128388383e-03  3.3931564276541730e-03  2.2971926652931712e-03  2.4078403449984648e-03  2.8541675459320213e-03  2.3661218034893537e-03  9.4028355639408216e-04  2.9125085474509499e-03  5.2569185869132541e-04  5.8836658075456130e-04  3.7116268726388470e-03  2.1585395549816740e-03  2.2013637091417245e-03  2.8735985251547931e-03  2.6648468988999417e-03  3.9723200698317607e-03  7.6857236734494225e-04  2.0786995326018179e-03  3.2314265913093994e-03  3.1375053407115363e-03  3.5726344076160961e-03  4.0044691631640743e-03  1.5851141612885692e-03  5.9276449008578841e-03  3.0689001335802890e-03  2.8134895215090180e-03  4.0093905891499778e-03  3.5525929815107822e-03  4.1867284927558056e-03  1.1694841844388016e-03  3.0959663209943417e-03  3.4976236335790101e-03  5.2088294318637662e-04  1.0634409300173809e-03  2.9232696071213398e-03  6.8480186402039144e-04  2.6384057947712049e-03  4.4805566955315044e-04  1.6002025432389300e-03  2.9480319808436054e-03  4.3136594744863752e-04  1.2160770163434352e-03  9.0530243551454107e-04  4.2925984953617348e-04  2.9440407087152256e-03  3.1075703277017837e-03  2.6877971696471635e-03  2.4139498904351105e-03  2.6061454964085131e-03  4.4069711435415848e-03  2.2974351734562633e-03  2.8038024259934291e-03  1.5357460858521081e-03  8.5727540066156405e-04  1.0843373011693276e-03  1.1037568336283311e-03  1.3761863628979543e-03  2.0619248491673689e-03  1.3783633382328812e-03  1.1117542816049091e-03  4.2528763329555336e-04  2.0111299779304150e-03  3.4856496868465332e-03  3.4411892935191091e-03  3.6296317505691879e-03  3.4317333323213173e-03  4.4364393791978939e-03  4.3809964004657784e-03  9.8540135553368984e-04  3.8158196883535968e-04  4.0443630954796895e-04  3.5999019266563451e-04  3.3086624138992707e-03  3.8337317759550216e-04  8.5515651964858093e-04  4.4754223676285523e-03  1.4330519499170802e-03  1.8785922267940988e-03  5.4665745573261352e-04  6.2847038361626148e-04  3.0908869915522146e-03  3.1796660590443396e-03  3.1266898079690391e-03  1.4538208113530774e-03  8.8160146683238327e-04  3.1796910119653711e-03  8.0711784797131360e-04  2.8988047880038653e-03  4.4529117835024923e-04  4.0963363041485103e-04  1.6539860253794545e-03  2.2219221520992142e-03  3.9417083345592192e-03  2.3551407931099448e-03  2.7234220635817619e-03  2.3999101616138251e-03  3.2494533769665129e-03  9.5281201496098843e-04  1.7655995557007502e-03  2.0420681943298848e-03  4.3787687554506013e-03  3.0597199247150192e-03  1.2255230966132676e-03  1.1722853820982509e-03  4.4360614357727883e-03  9.0503850318427370e-04  3.0687213479347335e-03  1.8896793727002533e-03  1.5130558252282275e-03  3.6536098095458604e-03  3.0163294458333653e-03  1.5125265186573542e-03  3.9328892747830764e-04  1.6808256203330670e-03  3.8213058235182296e-04  3.2671879544732343e-03  2.1317355319435661e-03  3.8367166018757185e-03  2.3288519250912226e-03  1.1960632712013