<?xml version="1.0"?>
<VTKFile type="UnstructuredGrid"  version="0.1"  >
<UnstructuredGrid>
<Piece  NumberOfPoints="2446" NumberOfCells="4585">
<Points>
<DataArray  type="Float64"  NumberOfComponents="3"  format="ascii">0 0.41 0  0 0 0  2.2 0 0  2.2 0.41 0  0.2404508497187474 0.2293892626146237 0  0.25 0.2 0  0.2404508497187474 0.1706107373853764 0  0.2154508497187474 0.1524471741852423 0  0.1845491502812526 0.1524471741852423 0  0.1595491502812526 0.1706107373853764 0  0.15 0.2 0  0.1595491502812526 0.2293892626146237 0  0.1845491502812527 0.2475528258147577 0  0.2154508497187474 0.2475528258147577 0  1.1 0 0  1.1 0.41 0  0 0.205 0  0.55 0 0  0.55 0.41 0  0.275 0 0  0.275 0.41 0  1.65 0.41 0  1.65 0 0  0.8250000000000001 0.41 0  0.8250000000000001 0 0  1.375 0 0  1.375 0.41 0  1.925 0 0  1.925 0.41 0  1.5125 0.205 0  1.7875 0.205 0  0.6875 0.205 0  0.9625000000000001 0.205 0  1.2375 0.205 0  2.2 0.205 0  0.4687002074688797 0.2068568464730291 0  1.99375 0.2152743902439024 0  2.0625 0 0  2.0625 0.41 0  2.2 0.3075 0  0.4125 0 0  0.4125 0.41 0  1.7875 0.41 0  1.375 0.1486128048780488 0  1.5125 0 0  1.7875 0 0  1.5125 0.41 0  0.8250000000000001 0.2613871951219511 0  0.9625000000000001 0.41 0  0.9625000000000001 0 0  0.6875 0.41 0  0.6875 0 0  0.1375 0 0  0.1375 0.41 0  1.2375 0 0  1.1 0.1486128048780487 0  1.2375 0.41 0  1.65 0.1486128048780487 0  1.126715909090909 0.2793064024390244 0  1.676715909090909 0.2793064024390244 0  0.8517159090909092 0.1306935975609756 0  1.348284090909091 0.2793064024390244 0  0.34375 0.3032389320646208 0  1.894702181800738 0.1282910975492754 0  2.092797818199262 0.1282910975492754 0  1.85625 0.3075 0  0.61875 0.3075 0  0.61875 0.1025 0  0.3648540804333487 0.1240075933101478 0  0 0.3075 0  0 0.1025 0  2.099172119769978 0.25625 0  0.48125 0.09238439620688085 0  0.5781001037344399 0.2059284232365146 0  0.48125 0.3196743479159776 0  0.7265881057911006 0.3055240343720796 0  1.99375 0.08395950269330846 0  1.459960956013612 0.3075 0  1.569025960719943 0.2986889805672169 0  0.75625 0.08213100772579164 0  1.03125 0.3278689922742084 0  0.923871252904788 0.3078247185783941 0  1.959375 0.3126371951219512 0  1.749222215368287 0.1025 0  1.275777784631713 0.1025 0  2.2 0.1025 0  1.225938124459196 0.3075 0  1.550777784631713 0.1025 0  1.000777784631713 0.1025 0  1.44375 0.07430640243902442 0  1.16875 0.07430640243902437 0  1.899250267340833 0.2229966846119207 0  0.1020898364287272 0.3140258291809757 0  1.766482954545455 0.2934032012195123 0  0.3405058858996321 0.2119987970531874 0  0.7710785630958338 0.1710968191298857 0  1.046078563095834 0.2389031808701144 0  0.2 0.3400647632937836 0  1.421109702350723 0.2261157654379721 0  0.2800464974185557 0.08982544815605742 0  0.098916018031319 0.09171660955420841 0  2.13125 0 0  2.118919042110979 0.3422084711244843 0  1.30625 0.41 0  0.89375 0 0  1.597888256393107 0.2173787389261347 0  0.20625 0 0  1.829299675393195 0.07400700849299596 0  1.71875 0.41 0  1.16875 0.41 0  2.038220665644273 0.332420740103091 0  0.34375 0 0  0.417496017710808 0.2696595573092803 0  0.2 0.07687845740457822 0  0.9295982307099278 0.1343158415898188 0  0.07390688010811153 0.1697064032433452 0  0.5238366813727013 0.2578302467013575 0  0.05452951551825875 0.25625 0  0.5229630068078351 0.1548816096928243 0  1.452769549894695 0.1548122580621249 0  1.369219062229598 0.07430640243902442 0  1.30625 0 0  0.8504409521244898 0.3356935975609756 0  0.8821881244591965 0.205 0  1.720943423819132 0.1714577452753128 0  1.157188124459196 0.205 0  1.094219062229598 0.07430640243902437 0  1.03125 0 0  1.304056576180868 0.1714577452753128 0  1.67579304192913 0.07430640243902437 0  0.2751941921308361 0.3346083473122598 0  1.209670467133757 0.1362100266964769 0  1.025335513626278 0.1700681449722324 0  0.7562500000000001 0.41 0  1.58125 0 0  0.7567170593862014 0.2409196493502535 0  0.6926714215682891 0.1272249611432207 0  0.4139715849905988 0.3397932387114203 0  0.9840787304190477 0.2717749043358119 0  0.06875000000000001 0.41 0  0 0.35875 0  0.9281250000000001 0.06276726142697993 0  0.5507396469029935 0.3219409231578227 0  0.5504468037989405 0.09136885600634273 0  1.58125 0.41 0  1.631724228912893 0.3381867502687533 0  1.825608881788174 0.14499488549201 0  1.85625 0 0  1.44375 0 0  1.44375 0.41 0  1.85625 0.41 0  2.13125 0.41 0  0.7562500000000001 0 0  0.89375 0.41 0  0.4812500000000001 0 0  0.34375 0.41 0  0.4812500000000001 0.41 0  0.20625 0.41 0  0.06875000000000001 0 0  1.16875 0 0  0.61875 0 0  0.61875 0.41 0  1.03125 0.41 0  1.71875 0 0  1.99375 0 0  1.99375 0.41 0  1.340625 0.3489494290853124 0  1.134375 0.3489494290853123 0  1.700180620188976 0.3438659752031281 0  2.135782184673599 0.07126652247502523 0  1.668441847249787 0.2129203728327609 0  1.295782514339747 0.2378437748815763 0  0.8233075729931248 0.06842334294821524 0  1.409375 0.3520314716057996 0  0.403505597322782 0.182067236678212 0  0.378125 0.05794951541303489 0  0.3043468223249023 0.1518321115979534 0  2.129248544730567 0.1906135162504124 0  2.060771381434487 0.1989445750470348 0  2.013252586573865 0.1496169464686054 0  1.942766402200229 0.1734448904596831 0  1.895522487186454 0.06076163953489683 0  2.069553871656643 0.06605731020975725 0  1.274680914880868 0.3520219391081363 0  1.614713220494657 0.09473434380863296 0  0.7899021319497519 0.3149123934144827 0  0.69518737419149 0.0634051089053758 0  0.2971740475496061 0.2592172353407536 0  1.72990325744076 0.2380068107952482 0  1.356580098625191 0.2120393231351682 0  2.034370752044885 0.2668681600792073 0  1.51768709249349 0.3426260931494756 0  1.561883724969884 0.1650446847858835 0  1.197344062229598 0.2523725417393646 0  1.804085235518364 0.3468178408964637 0  1.817887819205233 0.2589243285818559 0  1.905897727272727 0.3485060975609756 0  0.6719798073392919 0.2688965171178177 0  0 0.05125 0  0.653125 0.35875 0  0.6396896119294488 0.1627615407790282 0  0.4274150154087412 0.1242548552168279 0  1.192836486056382 0.3562350748565544 0  0.8279124365364005 0.183856489168822 0  1.097485222388854 0.2083571153401724 0  1.28257088594801 0.2944411014911587 0  1.474860187679412 0.2504218616229368 0  1.406767003493824 0.2829282258560709 0  0.446875 0.04619219810344041 0  0.515625 0.04585361801037557 0  0.592043440706648 0.05125 0  1.845656689180403 0.1998310418452388 0  2.144958525570388 0.2909790873294231 0  0.6171090763650112 0.2492366900333857 0  2.2 0.15375 0  0.5145586920831158 0.3648371739579888 0  1.57794966442982 0.3540357145964566 0  0.721875 0.3633107922168974 0  0.0496154796471391 0.333125 0  0.5843750000000001 0.3662560860076676 0  0.5810878747760798 0.1474002776121195 0  1.508991196088596 0.1421783375065625 0  0.8840670607017558 0.2640994375393898 0  0.09776612425612034 0.2204896805326566 0  1.50436820029908 0.06143401634903343 0  1.223857000523521 0.0823554862453532 0  1.153316824384777 0.1289850171317837 0  2.148922302309752 0.1258841779285271 0  0.309375 0.04312325590431198 0  1.621993280276081 0.2841214267927899 0  1.550118654119087 0.2461998729100966 0  1.327182649291491 0.1216967252533594 0  1.051977450479407 0.1221382572915816 0  1.753125 0.04556020050186112 0  1.271875 0.04556020050186116 0  0.9816084133102366 0.05126138213476004 0  1.039051841454368 0.0572224914831029 0  0.9719230514536006 0.3480477870845102 0  1.94956388244759 0.1180512551534177 0  1.949997712993411 0.04965831614304109 0  1.771961817615021 0.1530278789497521 0  1.909246823951428 0.2812757146784527 0  0.2459536687882397 0.04668633953831142 0  1.948575539857022 0.2445328248721197 0  1.697271520964565 0.1233917627620729 0  0.7964897648514618 0.1211426571931604 0  1.065625 0.3689344961371042 0  1.085849084308977 0.3170853572226867 0  0.4702981435440001 0.260434880697798 0  1.577403511714593 0.05463601888079143 0  0.05622663515370135 0.05493816910862376 0  0.3267207591099919 0.3566194660323104 0  0.9003051618565143 0.3564049499960621 0  1.751571320346033 0.3651102912045228 0  0.1583785085108421 0.2994699345738728 0  0.1455283439499995 0.3542795598723423 0  2.2 0.35875 0  0.2347662494194072 0.298325008655211 0  0.1527284455616188 0.1065771775690181 0  0.1382139529076665 0.05427454456341477 0  0.8749341636311069 0.05110114999892954 0  0.643661668713109 0.05693499781019222 0  1.466879772203159 0.3611261772912453 0  1.990280163552011 0.3564754268533217 0  1.17471064520912 0.2990917256188288 0  0.5202693090594349 0.206382495511728 0  0 0.25625 0  2.2 0.25625 0  2.2 0.05125 0  0 0.15375 0  1.853978576207987 0.35875 0  0.9787513713939683 0.1487523696999336 0  0.240625 0.3722153812029779 0  1.515638456102889 0.2882700110184686 0  0.09048297387599738 0.3637717362208066 0  2.150453692751374 0.2387066338105111 0  1.323782677156475 0.04897634338873398 0  0.8074131292871642 0.3624701995505916 0  1.409375 0.03715320121951221 0  1.406484531114799 0.1087852750766809 0  1.134375 0.03715320121951218 0  1.627401732573545 0.04552157221025036 0  0.1170173172005315 0.1427610859166811 0  2.045405893604797 0.1105340662939892 0  1.255408269734577 0.1577307500159216 0  2.028125 0.03707597992059326 0  0.4743610090857199 0.1421513964721819 0  0.9354010469015898 0.250631300585664 0  0.04420832937638274 0.128125 0  0.8922386349349938 0.0992956419364831 0  0.1197849154434487 0.2663398672460083 0  1.248258025468107 0.2565907092181813 0  0.3746885856929528 0.370723531618974 0  1.203125 0.0366132337404304 0  0.5724622277005015 0.2751253816079333 0  0.3365425205162783 0.08395777655057959 0  2.072662025974815 0.2975086504196739 0  0.4581080832182547 0.3648371739579888 0  0.3874522734668214 0.2295447548840689 0  0.7827853612484443 0.04106550386289586 0  1.887722846421017 0.1760882698830035 0  1.472640588990488 0.1118278026240017 0  1.865937103925594 0.2604137786483804 0  1.463913572748262 0.2030442564990043 0  1.376426316059077 0.3186741374914345 0  0.6641993820150034 0.3141688596240831 0  0.2943117490824315 0.2130987422685822 0  0.3478153998082709 0.1666571081082676 0  0.3427990510599805 0.2575950027870776 0  0.7997118993855807 0.2216171933356366 0  
[...]
<PointData  Scalars="f_10-1"> 
<DataArray  type="Float64"  Name="f_10-1"  format="ascii">6.9017944908488188e-04  1.6672582405426967e-04  1.0785155467939918e-03  2.5752083540296266e-03  2.1626466079548864e-03  1.5446320483969050e-03  8.1612206058014752e-04  3.9187630109971096e-04  3.4079207095671557e-04  3.8404091114924626e-04  4.7979103578171302e-04  8.1188449958968984e-04  1.5210894988840510e-03  2.1318090110053751e-03  5.2480190485571312e-04  3.5352522597916652e-03  3.6619601770087674e-04  2.0549231842394402e-04  4.1637819220575597e-03  1.8766155658789406e-04  4.0855827766251851e-03  2.9852431312117089e-03  8.5887166149031314e-04  3.8613849426165168e-03  3.3690595542725177e-04  7.0503044384795713e-04  3.2415287916364366e-03  9.8538503336323500e-04  2.7647238456395950e-03  1.9377921039920524e-03  1.9002565069246935e-03  1.9979589953921834e-03  1.9942479697380839e-03  1.9702831492606513e-03  1.8405042938102452e-03  2.0037257023802239e-03  1.9417631731415204e-03  1.0397322644754012e-03  2.6623472924752430e-03  2.3922433862172145e-03  1.9185148926142802e-04  4.2488649963989388e-03  2.8713650544224252e-03  1.3959362023659681e-03  7.8640004989443107e-04  9.2478580259328254e-04  3.1086909491575428e-03  2.8590260959106407e-03  3.6957455921859898e-03  4.2886309407179444e-04  4.0237526014864243e-03  2.5608949853163913e-04  1.7441461392503346e-04  2.4359162968980116e-03  6.1928496337754408e-04  1.3163151632159334e-03  3.3824564216330031e-03  1.4496527349874976e-03  2.8516229449244883e-03  2.5135828494191560e-03  9.9244927024352792e-04  2.7041479292774168e-03  4.0186387693896247e-03  1.3558239158952840e-03  1.3897680651185364e-03  2.5828386474414746e-03  3.6827482814987184e-03  5.1103932626450437e-04  3.3605757748384130e-04  5.3760834521941921e-04  2.1973543345308962e-04  2.1764706262907092e-03  3.0819550510012225e-04  2.0047270438616396e-03  4.0014691450595266e-03  3.5136700240303953e-03  1.1629859857157456e-03  2.8461686032655296e-03  2.7127713858196996e-03  4.9860593809637440e-04  3.3674782923623237e-03  3.3113535517572323e-03  2.5446684502797596e-03  1.1707986281379525e-03  9.8358240505216693e-04  1.2854954012296324e-03  3.0290001326038919e-03  1.1019244731081896e-03  8.2816143261956311e-04  9.0007314599661046e-04  7.4685773566352659e-04  2.0167994571879673e-03  4.6138629710790668e-03  2.5568038521258398e-03  2.1511587473045809e-03  1.4623124744785527e-03  2.4290465536110618e-03  5.1362907274568699e-03  2.1617535173238831e-03  2.5462244067000551e-04  2.1701686565001854e-04  1.0622472347909563e-03  2.5526599660464803e-03  3.3099789399790107e-03  3.8172096136435824e-04  2.0374570837429187e-03  1.8263265297954647e-04  1.0705081568674090e-03  2.9267569584762172e-03  3.4578733543731890e-03  2.5740591224566053e-03  1.9063484535074984e-04  3.5183548908873908e-03  2.3786678791050649e-04  1.0824708162736985e-03  3.0838748492656334e-04  3.1241255357427758e-03  4.8302737535738962e-04  9.5556070535941578e-04  1.4675384846684243e-03  8.6207906892071004e-04  6.6057620786271528e-04  3.6225113557358554e-03  1.9978027411430839e-03  1.6362288434559104e-03  1.9783717708399258e-03  7.0118309860554861e-04  4.7870074309664561e-04  1.6054221952406015e-03  1.0089018679939809e-03  4.5215791726164510e-03  1.2313164842052886e-03  1.5404608829415491e-03  3.9454369215143397e-03  8.2452180510976622e-04  2.5981343786091768e-03  8.1963807809529404e-04  4.1988356907836488e-03  2.8729593639374514e-03  1.0608139030888804e-03  6.1742496409474695e-04  5.2958255259207183e-04  3.9150823056541099e-03  3.6691731729526506e-04  3.0459083609166472e-03  2.8792267677370154e-03  1.4500423300216187e-03  9.5595774624881763e-04  7.4479183743020945e-04  3.1732801632749735e-03  2.8159375623028325e-03  2.6122826292187757e-03  2.9328622256274370e-04  3.7804092769609318e-03  1.9482463141530615e-04  4.2318064416767198e-03  4.2172742631047542e-03  3.5744756620352948e-03  1.6838723111821120e-04  5.7407925239444867e-04  2.2631884911350901e-04  4.0971561071283663e-03  3.6165785148284473e-03  8.9205528559337121e-04  1.0118931069161370e-03  2.7122505011105674e-03  3.1771067318284180e-03  3.3802445846830222e-03  2.8493933787126116e-03  1.1618716624321426e-03  1.9846215884502297e-03  2.3217259630813492e-03  4.7734230306099162e-04  3.1219065093553793e-03  1.2694425623643085e-03  2.1278221046084294e-04  5.0961508101231398e-04  1.7591337738716338e-03  1.8201902981834805e-03  1.5019199891707395e-03  1.6548341719143738e-03  1.0520293707176232e-03  1.1264483385621099e-03  3.2505361289005665e-03  1.0815022224475240e-03  3.5297414894107835e-03  3.6086701006698692e-04  3.0047971386911905e-03  2.1772163273348754e-03  2.0314518321966611e-03  2.2652237311017705e-03  2.9911698893330548e-03  1.5725043895983924e-03  2.5204175546854599e-03  2.7812356491479684e-03  2.3037960211118201e-03  2.7118062092987482e-03  3.1142216804807923e-03  1.8032090886740406e-04  3.9916726964084256e-03  1.2377963682712444e-03  4.0828196547298344e-04  3.3508234926462712e-03  1.6757304046250917e-03  2.0256939360319042e-03  2.8799941751042864e-03  2.3775469008067499e-03  2.6982575970804423e-03  2.0706640491504176e-04  2.2218655819796458e-04  2.5947494002208593e-04  1.8525521083123449e-03  2.3434216756282140e-03  2.8488071333680502e-03  1.5368431784435043e-03  4.1625177891496685e-03  2.9819281789828385e-03  3.9251516399640210e-03  8.4009779441888163e-04  4.0929562337211726e-03  9.3624010203502417e-04  1.3711861986943664e-03  2.8480102206697114e-03  4.9346656561267206e-04  8.7953870387189243e-04  8.2440883966408056e-04  1.1414144332854950e-03  1.3853736416592748e-03  2.0341307217573183e-04  2.5787116826845756e-03  2.3092771328133612e-03  1.1497917810408510e-03  1.0277186941343407e-03  9.5051322151918532e-04  6.9391030154001589e-04  5.1848451142311506e-04  5.8311133305345209e-04  3.5544693297255526e-03  1.3090045753755910e-03  1.0416933854482395e-03  1.4991515147111552e-03  2.4076342869459554e-03  2.0589116465321867e-04  2.1547918891142758e-03  1.2807256168124498e-03  8.5134380643061614e-04  3.5318805437812781e-03  3.2297459025014174e-03  3.2622735685610168e-03  8.9449666851593287e-04  1.8348062255381687e-04  4.3402673904792072e-03  3.6812982721667119e-03  2.8693818066360417e-03  5.4241033219063666e-03  4.4803264613895201e-03  2.5413612175511132e-03  3.8234267080407012e-03  2.5613701154971499e-04  1.9648690857383217e-04  4.4144068913779710e-04  3.0171502455671932e-04  3.1003193422746290e-03  2.6732808724183013e-03  3.0032937025948224e-03  2.0043948444494770e-03  4.6887556789471774e-04  2.1431052595582180e-03  1.1259120589881800e-03  2.8202765641246758e-04  2.7753814588451068e-03  1.2688086529931357e-03  4.2769114840141018e-03  2.6717253172220050e-03  1.7387256201674406e-03  2.0545697917860174e-03  7.3535835562591487e-04  3.8174315537360662e-03  7.5828077240106711e-04  1.0842952687019727e-03  5.8296022038227633e-04  8.9347655030802499e-04  2.8521110528355797e-04  1.2907000986380069e-03  1.4560281902711511e-03  1.0487488381845491e-03  6.7430078915584816e-04  2.6352516813598309e-03  2.4960574058728564e-04  7.2658961341257522e-04  3.4667532429383261e-03  2.5403421597532737e-03  4.2749267709260626e-03  6.2954168343188851e-04  3.3455714013555520e-03  2.4053197659348817e-04  2.4113348251922477e-03  4.2124426889273217e-03  2.6696898829432639e-03  3.4960101333794561e-04  1.6732967474466813e-03  1.1316727659414390e-03  2.2944379073795234e-03  1.9247420554024744e-03  2.9850541615330738e-03  3.6864916952486092e-03  2.0439757909130282e-03  7.1293942337922957e-04  3.2939433118829623e-03  2.2680501570469876e-03  2.5148979640963846e-03  2.2416339118413405e-03  1.0758357619120508e-03  1.3877945661219973e-03  8.4407210025169428e-04  2.3205575711823258e-03  2.9526055620445802e-03  2.5857069996556761e-03  1.7884326507458296e-03  3.8129797845976509e-04  2.6875182914875904e-03  1.3825992663911357e-03  2.0752907920236542e-03  2.6872664482548362e-03  2.5863282200381493e-03  3.7333424916358187e-04  2.2393518771609681e-03  2.4957573257932755e-03  2.6370750483839197e-03  2.6276977938835657e-03  1.7754518273705564e-04  3.1892876957030804e-04  3.0150911047054701e-03  1.2429593057480919e-03  2.4665486393529597e-03  1.7875309274707472e-04  2.3787424334109088e-03  1.6995137186680046e-03  7.6554606758237663e-04  1.7795009956059124e-03  3.0762300405613153e-03  3.8218084920773787e-03  8.7546306557960906e-04  9.2728302138735824e-04  3.6548266939002978e-03  3.5925140857682534e-03  1.0889537623624131e-03  2.5843963462688522e-03  7.6201794097271731e-04  4.9860480728204616e-04  3.8862160507292221e-03  1.6540153339761250e-03  1.3789792988967821e-03  2.2400750111369861e-03  9.6672442572589895e-04  1.1670323315218281e-03  8.0505925215439698e-04  2.7273991894820443e-03  2.2725396804098579e-03  2.9217403360882674e-04  2.8438424791914969e-03  5.4069062964913061e-04  2.7343386051033982e-03  2.9450433012695289e-03  6.9518928630479479e-04  2.4276116031952101e-04  3.1114916091162679e-03  1.5229684282182148e-03  3.7365039219674355e-03  1.9346289575056831e-03  3.3452229363127753e-03  1.6275669742237769e-03  7.9638713843211231e-04  1.9320487595638172e-04  1.6364353453410289e-03  1.1203400819108449e-03  2.3930714037067782e-03  3.0557199266923723e-03  3.9945191470957256e-03  3.9565516592779178e-03  1.9484032248873063e-03  8.3924686976349461e-04  2.4620560003232226e-03  2.3713582879337268e-03  1.5400840463843134e-03  3.3825123275440589e-04  1.6000914123331495e-03  2.9825299265101727e-03  1.0463563484223919e-03  3.2390274822037711e-03  2.7900028304658118e-03  9.9024604147114311e-04  9.7130988157488986e-04  1.1406627935387076e-03  1.0736734273862631e-03  1.0801631749453766e-03  8.9376342416668019e-04  1.1725362762754984e-03  1.6713048973644054e-04  3.4611287340855783e-03  3.9535428532279319e-03  6.8206731908558962e-04  2.6660098044838272e-03  1.3930774294946416e-03  1.3165977864882572e-03  3.2838492766699232e-03  1.9206279689158957e-03  2.2488417404416079e-04  4.4230550172767941e-03  1.0618937278412779e-03  5.5665807830550717e-04  3.6851984378470830e-03  3.8760112042732693e-03  1.6537909517809739e-03  2.9939120647641185e-04  2.6637613976127840e-03  6.4413201734364362e-04  1.1411259609760370e-03  2.5904558593726266e-03  4.2922893798669317e-03  3.9949957907902157e-03  2.3634070606090617e-03  4.1829602035759264e-03  1.4616243550473751e-03  1.3626742148201935e-03  5.1232671562484423e-04  1.3678872391047047e-03  3.1594898235236675e-04  3.6285121970940411e-03  2.5343377296863862e-03  3.7769811126077339e-03  4.7828826752485947e-04  8.1890158454911508e-04  1.8797174806460114e-03  1.9316876318362056e-03  1.3724293267052192e-03  1.2571450876314705e-03  1.0903709059403098e-03  7.2719351350055350e-04  9.6020863681382470e-04  1.5343546678248054e-03  1.4694745522169737e-03  1.4945795515468865e-03  2.6088264695799823e-04  4.2682039751317938e-03  9.4431557214140244e-04  1.1203035737813105e-03  2.1326918326806460e-04  4.7957477608280199e-03  2.7936282556244489e-03  2.7667640075883858e-03  3.4923965053861514e-03  2.9531844891032518e-04  2.7595304335569664e-03  1.9707443102505524e-04  2.6413571314591083e-03  2.9866323664466442e-03  1.7086098002120364e-03  3.0763358624216765e-03  8.0688906675341918e-04  9.4039871769539070e-04  3.7541663377556782e-03  2.0828223097834960e-03  2.0390003020028867e-03  8.9369170308205412e-04  9.8424686554208964e-04  2.3634121724473273e-03  1.9774853945261285e-03  1.8406352712199499e-03  2.7401044286732980e-03  9.1998463153110833e-04  2.0070150707462439e-03  1.1497415090905359e-03  1.6954125017997442e-03  2.6953869064437149e-04  8.7738838228560150e-04  3.4332429523061063e-03  4.4829439135004196e-04  4.1907067078012005e-04  3.5859068887579890e-04  3.7569382159002574e-04  1.2421965121301971e-03  1.2770562491960240e-03  4.8812933420515369e-04  1.8977819127063882e-03  2.6194338532247704e-03  3.1357083722304536e-03  2.1116176838158738e-03  2.1494142770960745e-03  1.3549898068789300e-03  1.6446806092992111e-03  2.7227979358300431e-03  2.0676525306348060e-04  4.2485543908736198e-03  7.4956901048852580e-04  1.1260349478171374e-03  3.1870681944254757e-03  1.2733427891500758e-03  3.4396987111254226e-03  3.4958975631113739e-03  3.2786295775398379e-03  3.2775506265840942e-03  3.2090368625894592e-03  3.1457511948453721e-03  1.7493736640499834e-03  1.5006489075733559e-03  3.4210040935247661e-03  3.9029097099975373e-03  4.1057954415086011e-03  1.6634105170985974e-03  5.4402314552516855e-04  2.0057889537681832e-04  1.9097126730222171e-04  4.0172535965658160e-03  3.6419916885722207e-03  3.9147998861597897e-03  3.9593871821633694e-03  1.5978622097664967e-03  6.4795505627856641e-04  2.4652280535234468e-03  3.0001152499524399e-04  6.5092788372364963e-04  5.2291774064349458e-04  2.9492547361416772e-03  2.9566855610314415e-03  1.6944823807187820e-03  1.7099919993212528e-03  2.3612208010513210e-03  3.3475440210073508e-03  3.4978733971713577e-03  6.0082433338180276e-04  2.0425760668176473e-04  6.8369434752535701e-04  5.0303287647765038e-04  1.0726149269560566e-03  1.0502516794834097e-03  5.5007167570066205e-04  7.2663703525271289e-04  3.1406115062587170e-03  2.8989613586304138e-03  3.5753674265476642e-03  9.1028542327232826e-04  3.9847108729808975e-03  3.2077740179608217e-03  2.7441448013925838e-04  2.5877955232200128e-03  4.0696067691560348e-04  4.2506529239902720e-03  1.9241130730773454e-04  4.2375459488348966e-03  1.7087755502306190e-04  3.8984149099649179e-03  1.8490319807783968e-04  1.6494060131072874e-03  2.3947308956890034e-04  3.1427432230796490e-04  1.8944385032814771e-04  4.1324448864810733e-03  4.1928959605297507e-03  2.1409763804899751e-04  1.9834602601547148e-04  4.0634438028600743e-03  4.5589897879475119e-04  5.9536237135435601e-04  8.4146940402426138e-04  9.9827883665827588e-04  6.4005615864515654e-04  1.0259463378522163e-03  2.7390444103260634e-03  2.9114383125834723e-03  1.3041978249827529e-03  4.8422049575957949e-04  1.1955716708246160e-03  1.4483826316462507e-03  2.5585204240377243e-04  2.3655265780705200e-03  2.6666927179092460e-03  3.2558963037607933e-03  2.8352406751598019e-03  2.8764980158778523e-03  9.9211913804900633e-04  2.5918830165448403e-03  3.0325457658840287e-03  3.1785477261235986e-03  2.3307224245666608e-03  2.5925983008459014e-03  1.9306141814870788e-03  2.4757712756084591e-04  2.5279536459575295e-03  1.2334772285514952e-03  2.2684350238086678e-03  1.9767011149484145e-03  2.5558350910222325e-03  3.1132854932710919e-03  3.4708717999732668e-03  2.9445766464583486e-03  3.6570827814958544e-03  4.1466559272777912e-04  3.9397277281452876e-03  8.4839995381701474e-04  4.0709055317148767e-03  1.0564202069785239e-03  1.2319923168221691e-03  7.7149801778581050e-04  4.0070721742682730e-03  1.6950268723220959e-03  1.6112269705693186e-03  3.1995329353186361e-03  1.8536251070915488e-03  1.5314528435006328e-03  2.4609606785507684e-03  2.5362088748711472e-03  2.1383319596237266e-04  3.4137287268882805e-03  3.2148545212666449e-03  2.4842818321551196e-03  2.4377380640838785e-03  2.8477766808122805e-03  2.0530615255630333e-03  2.7078747181445225e-03  2.6672491350219550e-03  2.1163589540458593e-03  1.1397234745989069e-03  2.2107882213869908e-03  2.9490489281819971e-04  1.5494375931429658e-03  1.3025514121552369e-03  7.6625384493018219e-04  3.5271170034167753e-03  1.0334179719785320e-03  1.0042402140656484e-03  3.1170899952975378e-04  2.7712438796182099e-03  2.7635987839142663e-03  3.0518531538270446e-03  2.3366472343726795e-03  3.2655025354555477e-04  1.8367824744422272e-04  8.4979517886094339e-04  3.0209801654464390e-03  1.0818791744846808e-03  1.7037954417890781e-03  2.1482970110878072e-04  9.5192357027400849e-04  9.6825660408560025e-04  2.7926396833956345e-04  2.2359367712487931e-03  2.7975338212032552e-03  3.5876039876896917e-03  2.6571040392573079e-03  1.6291923659468564e-03  1.0330885263025193e-03  8.2696041135803364e-04  2.0695218547581071e-03  7.0239513274264324e-04  3.1510759366901787e-03  9.3721415463987644e-04  2.3706026577063194e-03  2.4409778222472353e-04  2.2188736118710067e-03  2.7446827792706693e-03  2.3159971329706729e-03  1.7156695296217629e-03  9.0197297825806149e-04  2.4465208327358484e-03  2.4607313248934332e-03  1.8368080212292613e-03  7.9347797655405106e-04  2.7226516598560829e-03  1.7022706670418187e-04  1.7241043147540728e-04  1.3801045326047397e-03  1.1645344658201312e-03  3.0973252463184536e-03  3.4714542237321076e-03  4.1275007577781762e-03  2.9688313013217543e-03  1.8903756065331929e-04  4.2967558471090316e-03  3.7545880015878250e-03  1.3207469450314811e-03  3.0262920025125261e-03  3.2586551052409232e-03  4.3676981707491801e-03  8.0552046807643243e-04  2.8264459397647616e-03  3.7487382594340530e-03  4.1706434048924241e-04  3.6229997535732273e-03  1.9600752996981049e-04  1.1375805227747888e-03  3.4857365962697373e-03  9.8184420957042368e-04  2.3559910863287918e-03  1.2846379965222806e-03  2.4602723894923723e-03  1.9953567843387972e-03  2.9047571765861641e-03  3.3456932581387420e-04  1.6550393040857196e-03  1.8885482931667058e-03  1.3805128832288050e-03  2.4551449105247552e-03  1.6967434740362110e-03  1.1456828681558208e-03  2.6238630763380016e-03  2.2643718476289512e-03  6.2257554953461746e-04  4.3660614959664190e-03  6.2587570565338169e-03  2.2358511684446121e-03  3.1716495238302859e-03  2.0914081082604443e-03  2.2001888997003061e-03  2.6380963677837470e-03  2.1593416159137397e-03  7.6186963444266505e-04  2.6913632205843386e-03  3.4137102737309742e-04  4.0037192977084669e-04  3.4852374833552911e-03  1.9508708223831253e-03  1.9938372454690154e-03  2.6576177607104761e-03  2.4524812841844154e-03  3.7446522639924379e-03  5.8601057385149734e-04  1.8793227952762345e-03  3.0117623233663978e-03  2.9193759820102076e-03  3.3505139963319669e-03  3.7769569074051499e-03  1.4016235408959028e-03  5.6997798371290504e-03  2.8502196486068329e-03  2.5988438849345753e-03  3.7805922973285075e-03  3.3252243985456755e-03  3.9564700984865558e-03  9.9141427714685400e-04  2.8781058670530875e-03  3.2732687866299237e-03  3.3154657246220823e-04  8.5973107718138853e-04  2.6978139446422324e-03  5.0270323013286693e-04  2.4257147686755020e-03  2.5855796069765128e-04  1.4081893872912024e-03  2.7288246483891244e-03  2.4027292360407298e-04  1.0194671233476802e-03  7.1288475557666569e-04  2.3918472990950521e-04  2.7245905619191924e-03  2.8823372631565053e-03  2.4670821453698795e-03  2.2035177741726473e-03  2.3870742299772060e-03  4.1756265110379680e-03  2.0924675459120527e-03  2.5837248456209660e-03  1.3391817279526143e-03  6.7751102384569560e-04  9.0919512834514377e-04  9.2889243963888537e-04  1.1904792008108427e-03  1.8547164255573484e-03  1.1861987799367854e-03  9.2385588591513857e-04  2.3071996846992204e-04  1.8100640959763591e-03  3.2604482275517340e-03  3.2181278322781092e-03  3.4037551951397655e-03  3.2101660511455838e-03  4.2050795574361420e-03  4.1510328191936797e-03  8.0229305076550967e-04  1.9135671531808984e-04  2.1187828481772738e-04  1.7286430993328195e-04  3.0718114327722926e-03  1.9394336181741183e-04  6.7124281297987760e-04  4.2423372304823221e-03  1.2333283272913127e-03  1.6853126629551430e-03  3.3499243077775526e-04  4.1049186741569821e-04  2.8691948024202004e-03  2.9555376523903252e-03  2.9068421223516381e-03  1.2714015040065701e-03  6.4986825524142842e-04  2.9611813900953022e-03  5.7174068744226939e-04  2.6655494581971097e-03  2.4657503061527129e-04  2.1570856438545135e-04  1.4663113808313954e-03  2.0183327382586437e-03  3.7161794449589252e-03  2.1486338479516057e-03  2.5095028048641175e-03  2.1925620475404645e-03  3.0270030221762455e-03  7.6849215145771189e-04  1.5717350232197157e-03  1.8433620526047284e-03  4.1476543903951014e-03  2.8359059380199101e-03  1.0499182183513237e-03  9.9892869017482642e-04  4.2072691533211167e-03  7.0408894193355260e-04  2.8455558874572046e-03  1.6852952929571664e-03  1.3266877056375996e-03  3.4257002706379507e-03  2.7974591576064712e-03  1.3143263027871189e-03  2.0620607940352671e-04  1.4917222082720405e-03  1.9319288396925268e-04  3.0451866359572500e-03  1.9221336025936498e-03  3.6133330064280086e-03  2.1231023055177899e-03  1.0076678722723