<?xml version="1.0"?>
<VTKFile type="UnstructuredGrid"  version="0.1"  >
<UnstructuredGrid>
<Piece  NumberOfPoints="2446" NumberOfCells="4585">
<Points>
<DataArray  type="Float64"  NumberOfComponents="3"  format="ascii">0 0.41 0  0 0 0  2.2 0 0  2.2 0.41 0  0.2404508497187474 0.2293892626146237 0  0.25 0.2 0  0.2404508497187474 0.1706107373853764 0  0.2154508497187474 0.1524471741852423 0  0.1845491502812526 0.1524471741852423 0  0.1595491502812526 0.1706107373853764 0  0.15 0.2 0  0.1595491502812526 0.2293892626146237 0  0.1845491502812527 0.2475528258147577 0  0.2154508497187474 0.2475528258147577 0  1.1 0 0  1.1 0.41 0  0 0.205 0  0.55 0 0  0.55 0.41 0  0.275 0 0  0.275 0.41 0  1.65 0.41 0  1.65 0 0  0.8250000000000001 0.41 0  0.8250000000000001 0 0  1.375 0 0  1.375 0.41 0  1.925 0 0  1.925 0.41 0  1.5125 0.205 0  1.7875 0.205 0  0.6875 0.205 0  0.9625000000000001 0.205 0  1.2375 0.205 0  2.2 0.205 0  0.4687002074688797 0.2068568464730291 0  1.99375 0.2152743902439024 0  2.0625 0 0  2.0625 0.41 0  2.2 0.3075 0  0.4125 0 0  0.4125 0.41 0  1.7875 0.41 0  1.375 0.1486128048780488 0  1.5125 0 0  1.7875 0 0  1.5125 0.41 0  0.8250000000000001 0.2613871951219511 0  0.9625000000000001 0.41 0  0.9625000000000001 0 0  0.6875 0.41 0  0.6875 0 0  0.1375 0 0  0.1375 0.41 0  1.2375 0 0  1.1 0.1486128048780487 0  1.2375 0.41 0  1.65 0.1486128048780487 0  1.126715909090909 0.2793064024390244 0  1.676715909090909 0.2793064024390244 0  0.8517159090909092 0.1306935975609756 0  1.348284090909091 0.2793064024390244 0  0.34375 0.3032389320646208 0  1.894702181800738 0.1282910975492754 0  2.092797818199262 0.1282910975492754 0  1.85625 0.3075 0  0.61875 0.3075 0  0.61875 0.1025 0  0.3648540804333487 0.1240075933101478 0  0 0.3075 0  0 0.1025 0  2.099172119769978 0.25625 0  0.48125 0.09238439620688085 0  0.5781001037344399 0.2059284232365146 0  0.48125 0.3196743479159776 0  0.7265881057911006 0.3055240343720796 0  1.99375 0.08395950269330846 0  1.459960956013612 0.3075 0  1.569025960719943 0.2986889805672169 0  0.75625 0.08213100772579164 0  1.03125 0.3278689922742084 0  0.923871252904788 0.3078247185783941 0  1.959375 0.3126371951219512 0  1.749222215368287 0.1025 0  1.275777784631713 0.1025 0  2.2 0.1025 0  1.225938124459196 0.3075 0  1.550777784631713 0.1025 0  1.000777784631713 0.1025 0  1.44375 0.07430640243902442 0  1.16875 0.07430640243902437 0  1.899250267340833 0.2229966846119207 0  0.1020898364287272 0.3140258291809757 0  1.766482954545455 0.2934032012195123 0  0.3405058858996321 0.2119987970531874 0  0.7710785630958338 0.1710968191298857 0  1.046078563095834 0.2389031808701144 0  0.2 0.3400647632937836 0  1.421109702350723 0.2261157654379721 0  0.2800464974185557 0.08982544815605742 0  0.098916018031319 0.09171660955420841 0  2.13125 0 0  2.118919042110979 0.3422084711244843 0  1.30625 0.41 0  0.89375 0 0  1.597888256393107 0.2173787389261347 0  0.20625 0 0  1.829299675393195 0.07400700849299596 0  1.71875 0.41 0  1.16875 0.41 0  2.038220665644273 0.332420740103091 0  0.34375 0 0  0.417496017710808 0.2696595573092803 0  0.2 0.07687845740457822 0  0.9295982307099278 0.1343158415898188 0  0.07390688010811153 0.1697064032433452 0  0.5238366813727013 0.2578302467013575 0  0.05452951551825875 0.25625 0  0.5229630068078351 0.1548816096928243 0  1.452769549894695 0.1548122580621249 0  1.369219062229598 0.07430640243902442 0  1.30625 0 0  0.8504409521244898 0.3356935975609756 0  0.8821881244591965 0.205 0  1.720943423819132 0.1714577452753128 0  1.157188124459196 0.205 0  1.094219062229598 0.07430640243902437 0  1.03125 0 0  1.304056576180868 0.1714577452753128 0  1.67579304192913 0.07430640243902437 0  0.2751941921308361 0.3346083473122598 0  1.209670467133757 0.1362100266964769 0  1.025335513626278 0.1700681449722324 0  0.7562500000000001 0.41 0  1.58125 0 0  0.7567170593862014 0.2409196493502535 0  0.6926714215682891 0.1272249611432207 0  0.4139715849905988 0.3397932387114203 0  0.9840787304190477 0.2717749043358119 0  0.06875000000000001 0.41 0  0 0.35875 0  0.9281250000000001 0.06276726142697993 0  0.5507396469029935 0.3219409231578227 0  0.5504468037989405 0.09136885600634273 0  1.58125 0.41 0  1.631724228912893 0.3381867502687533 0  1.825608881788174 0.14499488549201 0  1.85625 0 0  1.44375 0 0  1.44375 0.41 0  1.85625 0.41 0  2.13125 0.41 0  0.7562500000000001 0 0  0.89375 0.41 0  0.4812500000000001 0 0  0.34375 0.41 0  0.4812500000000001 0.41 0  0.20625 0.41 0  0.06875000000000001 0 0  1.16875 0 0  0.61875 0 0  0.61875 0.41 0  1.03125 0.41 0  1.71875 0 0  1.99375 0 0  1.99375 0.41 0  1.340625 0.3489494290853124 0  1.134375 0.3489494290853123 0  1.700180620188976 0.3438659752031281 0  2.135782184673599 0.07126652247502523 0  1.668441847249787 0.2129203728327609 0  1.295782514339747 0.2378437748815763 0  0.8233075729931248 0.06842334294821524 0  1.409375 0.3520314716057996 0  0.403505597322782 0.182067236678212 0  0.378125 0.05794951541303489 0  0.3043468223249023 0.1518321115979534 0  2.129248544730567 0.1906135162504124 0  2.060771381434487 0.1989445750470348 0  2.013252586573865 0.1496169464686054 0  1.942766402200229 0.1734448904596831 0  1.895522487186454 0.06076163953489683 0  2.069553871656643 0.06605731020975725 0  1.274680914880868 0.3520219391081363 0  1.614713220494657 0.09473434380863296 0  0.7899021319497519 0.3149123934144827 0  0.69518737419149 0.0634051089053758 0  0.2971740475496061 0.2592172353407536 0  1.72990325744076 0.2380068107952482 0  1.356580098625191 0.2120393231351682 0  2.034370752044885 0.2668681600792073 0  1.51768709249349 0.3426260931494756 0  1.561883724969884 0.1650446847858835 0  1.197344062229598 0.2523725417393646 0  1.804085235518364 0.3468178408964637 0  1.817887819205233 0.2589243285818559 0  1.905897727272727 0.3485060975609756 0  0.6719798073392919 0.2688965171178177 0  0 0.05125 0  0.653125 0.35875 0  0.6396896119294488 0.1627615407790282 0  0.4274150154087412 0.1242548552168279 0  1.192836486056382 0.3562350748565544 0  0.8279124365364005 0.183856489168822 0  1.097485222388854 0.2083571153401724 0  1.28257088594801 0.2944411014911587 0  1.474860187679412 0.2504218616229368 0  1.406767003493824 0.2829282258560709 0  0.446875 0.04619219810344041 0  0.515625 0.04585361801037557 0  0.592043440706648 0.05125 0  1.845656689180403 0.1998310418452388 0  2.144958525570388 0.2909790873294231 0  0.6171090763650112 0.2492366900333857 0  2.2 0.15375 0  0.5145586920831158 0.3648371739579888 0  1.57794966442982 0.3540357145964566 0  0.721875 0.3633107922168974 0  0.0496154796471391 0.333125 0  0.5843750000000001 0.3662560860076676 0  0.5810878747760798 0.1474002776121195 0  1.508991196088596 0.1421783375065625 0  0.8840670607017558 0.2640994375393898 0  0.09776612425612034 0.2204896805326566 0  1.50436820029908 0.06143401634903343 0  1.223857000523521 0.0823554862453532 0  1.153316824384777 0.1289850171317837 0  2.148922302309752 0.1258841779285271 0  0.309375 0.04312325590431198 0  1.621993280276081 0.2841214267927899 0  1.550118654119087 0.2461998729100966 0  1.327182649291491 0.1216967252533594 0  1.051977450479407 0.1221382572915816 0  1.753125 0.04556020050186112 0  1.271875 0.04556020050186116 0  0.9816084133102366 0.05126138213476004 0  1.039051841454368 0.0572224914831029 0  0.9719230514536006 0.3480477870845102 0  1.94956388244759 0.1180512551534177 0  1.949997712993411 0.04965831614304109 0  1.771961817615021 0.1530278789497521 0  1.909246823951428 0.2812757146784527 0  0.2459536687882397 0.04668633953831142 0  1.948575539857022 0.2445328248721197 0  1.697271520964565 0.1233917627620729 0  0.7964897648514618 0.1211426571931604 0  1.065625 0.3689344961371042 0  1.085849084308977 0.3170853572226867 0  0.4702981435440001 0.260434880697798 0  1.577403511714593 0.05463601888079143 0  0.05622663515370135 0.05493816910862376 0  0.3267207591099919 0.3566194660323104 0  0.9003051618565143 0.3564049499960621 0  1.751571320346033 0.3651102912045228 0  0.1583785085108421 0.2994699345738728 0  0.1455283439499995 0.3542795598723423 0  2.2 0.35875 0  0.2347662494194072 0.298325008655211 0  0.1527284455616188 0.1065771775690181 0  0.1382139529076665 0.05427454456341477 0  0.8749341636311069 0.05110114999892954 0  0.643661668713109 0.05693499781019222 0  1.466879772203159 0.3611261772912453 0  1.990280163552011 0.3564754268533217 0  1.17471064520912 0.2990917256188288 0  0.5202693090594349 0.206382495511728 0  0 0.25625 0  2.2 0.25625 0  2.2 0.05125 0  0 0.15375 0  1.853978576207987 0.35875 0  0.9787513713939683 0.1487523696999336 0  0.240625 0.3722153812029779 0  1.515638456102889 0.2882700110184686 0  0.09048297387599738 0.3637717362208066 0  2.150453692751374 0.2387066338105111 0  1.323782677156475 0.04897634338873398 0  0.8074131292871642 0.3624701995505916 0  1.409375 0.03715320121951221 0  1.406484531114799 0.1087852750766809 0  1.134375 0.03715320121951218 0  1.627401732573545 0.04552157221025036 0  0.1170173172005315 0.1427610859166811 0  2.045405893604797 0.1105340662939892 0  1.255408269734577 0.1577307500159216 0  2.028125 0.03707597992059326 0  0.4743610090857199 0.1421513964721819 0  0.9354010469015898 0.250631300585664 0  0.04420832937638274 0.128125 0  0.8922386349349938 0.0992956419364831 0  0.1197849154434487 0.2663398672460083 0  1.248258025468107 0.2565907092181813 0  0.3746885856929528 0.370723531618974 0  1.203125 0.0366132337404304 0  0.5724622277005015 0.2751253816079333 0  0.3365425205162783 0.08395777655057959 0  2.072662025974815 0.2975086504196739 0  0.4581080832182547 0.3648371739579888 0  0.3874522734668214 0.2295447548840689 0  0.7827853612484443 0.04106550386289586 0  1.887722846421017 0.1760882698830035 0  1.472640588990488 0.1118278026240017 0  1.865937103925594 0.2604137786483804 0  1.463913572748262 0.2030442564990043 0  1.376426316059077 0.3186741374914345 0  0.6641993820150034 0.3141688596240831 0  0.2943117490824315 0.2130987422685822 0  0.3478153998082709 0.1666571081082676 0  0.3427990510599805 0.2575950027870776 0  0.7997118993855807 0.2216171933356366 0  
[...]
<PointData  Scalars="f_10-2"> 
<DataArray  type="Float64"  Name="f_10-2"  format="ascii">3.5427477846696924e-07  4.6661989729320842e-07  3.8780092881003258e-06  3.6622108572152355e-06  2.1870904601078319e-06  2.6920119297673400e-06  2.0726928208331072e-06  1.1214849545527977e-06  6.8526714404410570e-07  5.1344154224587932e-07  4.6366473218837290e-07  5.2777185015642084e-07  7.3075106596362375e-07  1.1975448923000800e-06  2.9585442107695025e-06  2.6978781838720003e-06  3.7611397168214052e-07  1.9273270792070303e-06  1.9180118565720483e-06  1.7870822869437246e-06  1.6484068325956109e-06  3.4185880823783941e-06  3.6947914930366369e-06  2.2109701842976871e-06  2.3642934084745830e-06  3.4137023775148093e-06  3.1222204199550623e-06  3.8378657802115694e-06  3.5875336781340484e-06  4.7887932920800256e-06  4.6730725708074659e-06  4.3262201316927438e-06  4.7337144667202133e-06  4.8354793406752476e-06  4.4412295680821601e-06  3.4708852588752186e-06  4.5432387580798373e-06  3.8710828543561603e-06  3.6371932030089892e-06  4.0154576515505169e-06  1.9002202252129776e-06  1.8740167128972343e-06  3.5158081664778223e-06  4.6088926154430991e-06  3.5765992238049494e-06  3.7795734070294310e-06  3.2867727598228311e-06  3.9799860658133191e-06  2.4516068891036852e-06  2.6682636066557694e-06  2.0157774543712067e-06  2.0871112320029832e-06  1.1583921381639391e-06  8.8722549651311298e-07  3.2132605052173012e-06  4.5183441665178742e-06  2.9273964327523189e-06  4.5846661086691990e-06  4.0798386787340644e-06  4.2820702201939858e-06  3.9468237068617581e-06  4.2230414338700213e-06  1.9551530577587732e-06  4.3960795860778682e-06  4.3316458991343495e-06  4.0396970277677616e-06  2.6218331183208066e-06  2.7570972224849943e-06  1.9141924258980241e-06  3.4513453404413736e-07  3.9938527965061337e-07  4.3360668053643204e-06  2.1427900506258546e-06  3.9708075235300051e-06  2.1466989124572169e-06  2.9434786408322635e-06  4.1171159843999828e-06  3.9238750432854967e-06  4.0710134565269512e-06  2.8353318822216825e-06  3.1767862313990490e-06  3.3224362608926567e-06  4.0049892213941045e-06  4.2350324610018330e-06  4.0452339823793645e-06  4.1773738758397783e-06  3.7419209759411464e-06  4.1975584854573863e-06  3.7169812680857726e-06  3.8585772411032386e-06  3.5528935840520611e-06  4.5744626911677560e-06  7.9363535469181907e-07  4.1558611590500831e-06  2.7433325537365751e-06  4.3671714429955075e-06  4.5700870218899139e-06  1.6532056951195713e-06  4.7438371466867905e-06  1.6241334569728348e-06  8.1444106487181107e-07  3.8756930559391350e-06  3.8279535822365644e-06  3.0306176510777924e-06  2.5151172528898570e-06  4.7299354356649820e-06  1.5743791364780360e-06  4.0460700120482446e-06  3.4729001524443547e-06  2.8158783646340006e-06  3.8776762313761326e-06  1.8757330437051278e-06  2.3846760968468126e-06  1.5195759048973796e-06  4.1414850858566113e-06  3.8845686953989869e-07  3.1069172530504938e-06  3.6806699959822772e-07  3.2706801693252249e-06  4.6577730559615491e-06  3.7928436470919373e-06  3.3126398986711757e-06  2.7350613031024624e-06  4.6695729004474575e-06  4.6687965924271888e-06  4.8272117701191244e-06  3.4399346089506184e-06  2.8229999144019474e-06  4.7689561613625556e-06  3.9993030031172395e-06  1.8262601386017195e-06  4.4336351868949663e-06  4.6792202368730201e-06  2.0994211327642268e-06  3.6426863663819765e-06  4.1718643399395316e-06  3.4748669621934185e-06  1.9755834907551301e-06  4.0516997631362442e-06  4.6777485226513305e-07  3.4176868794668677e-07  2.9671337884334205e-06  2.2702224492647989e-06  2.3525839167781991e-06  3.3561392724362737e-06  3.7083575914408260e-06  4.5129325307189875e-06  3.8119664873418970e-06  3.4957546827839368e-06  3.2109397884786938e-06  3.5590440860157537e-06  3.6529656690118740e-06  2.2145719209220243e-06  2.3219568267958923e-06  1.9043876995330483e-06  1.8054942739387617e-06  1.8979772268440703e-06  1.3439021409966489e-06  6.4440498712550838e-07  3.0958705475210018e-06  1.9887505113086911e-06  1.9558352195852353e-06  2.5705475418140459e-06  3.7396869564449346e-06  3.8539124995765959e-06  3.6180387603912859e-06  3.3478154703825505e-06  3.0700711301480526e-06  3.7001249555283605e-06  4.0458581229352701e-06  4.7128964327663454e-06  4.6667562657042647e-06  2.7979108545234652e-06  3.4032324787434236e-06  2.9659287142916013e-06  1.8820053632933159e-06  1.8661990307504243e-06  4.4826382210750824e-06  4.5247077973360733e-06  4.4574229575033468e-06  4.5676220187236009e-06  3.9850449453686362e-06  4.0259824885743257e-06  3.2408682242522469e-06  4.1460555894981686e-06  2.9291839632080180e-06  2.4200846186679298e-06  1.8674227147780710e-06  4.5865612964491329e-06  4.8128933164181361e-06  4.3042699261671340e-06  3.5867222025278694e-06  4.6984165390346434e-06  4.4970003180116543e-06  3.7294787744286261e-06  4.4278530105031240e-06  3.7578491891161264e-06  3.4671581334925451e-06  4.3174309932205542e-07  2.1301978506233146e-06  3.9112084391905474e-06  2.2186206536777696e-06  3.0835958402346253e-06  4.5701484784899446e-06  4.8139646265610028e-06  3.9806565522402149e-06  4.5607545289975632e-06  4.2009581052292936e-06  1.9205327620046033e-06  1.9721853120217099e-06  2.0924218950748815e-06  4.6459660513388723e-06  4.1236296934886497e-06  3.6403966194114980e-06  4.3841100489970231e-06  1.9674524686862095e-06  3.5429653431380604e-06  2.1996481472721118e-06  3.7144345610563489e-07  2.0136291183403434e-06  3.4219298914538961e-06  4.5582122244418811e-06  4.0342761416348328e-06  3.9749300886962348e-07  3.7975825497585705e-06  3.7292165848719669e-06  4.3049672960247065e-06  4.2987713028767025e-06  1.8183979299361989e-06  4.2354142601066023e-06  4.5868346101848707e-06  4.3176124534722667e-06  4.1103720918283670e-06  3.8574402416159804e-06  3.4120602904756269e-06  2.9435592578188856e-06  3.1281601966680866e-06  2.8045786481550289e-06  4.3217223826166372e-06  3.9420765106363950e-06  4.5739098937367583e-06  4.2431934871327378e-06  1.7097931444969066e-06  4.4627316616687749e-06  4.3972134601799624e-06  3.6498862670164801e-06  2.7687165390279799e-06  3.4283347879937847e-06  2.7919381233403012e-06  3.8065487469318230e-06  5.0831190547148327e-07  1.8482323170984711e-06  2.5748975707433150e-06  3.5949263666469229e-06  1.2839124015120393e-06  1.1945784209165615e-06  3.7584578241420148e-06  1.4892780050699649e-06  1.1208921898115146e-06  1.2675731348446036e-06  2.7029289913412385e-06  2.2307878658770982e-06  3.3906850666951640e-06  3.7383420035757625e-06  3.8172262057618127e-06  3.7332940866772120e-06  3.6302662788968676e-07  4.2939807124147220e-06  3.9643614945742307e-06  3.8729164261692914e-07  3.6824901470532558e-06  4.4145260856557427e-06  1.6007291956429758e-06  4.1709656816901759e-06  5.6945573507964752e-07  4.3852259624715804e-06  3.5081191191942784e-06  2.3498401951326044e-06  3.5440266979337514e-06  4.2059071010147240e-06  3.1274609931344732e-06  3.7870953108160123e-06  6.1649397586108533e-07  4.2572052931616403e-06  4.6712676750834152e-06  3.9141694391798399e-06  2.7609996934543861e-06  4.3185556940584665e-06  4.0457247224080448e-07  3.4610507983108846e-06  7.3058923215395824e-07  4.4647908188024133e-06  1.8714135290047407e-06  3.2494725837771817e-06  3.0034931230266111e-06  1.8006680011726857e-06  4.0999747896701391e-06  1.9390357389198357e-06  2.7898631155092742e-06  2.4031110826735412e-06  4.6047874731745084e-06  4.2644266902974520e-06  4.4021163546143466e-06  4.8094768136119736e-06  3.7264636365422231e-06  2.6394337036401007e-06  2.6444063964155607e-06  2.3208079124325181e-06  2.1031995448849242e-06  4.4697703972367432e-06  4.2508399801099176e-06  4.5147994614041118e-06  3.9229875948126240e-06  4.2279370923079016e-06  3.5770491550321571e-06  4.6353696766071280e-06  3.9390320033203022e-06  4.4333035673205337e-06  4.8255516282347462e-06  1.4354689879385480e-06  3.6278367823895467e-06  4.5390980412755460e-06  4.1825979896240843e-06  4.0094525173757124e-06  4.0742338368792026e-06  3.7480719665461083e-07  4.3628789599196040e-06  3.8806410666434336e-06  3.6461324061639353e-06  3.7269721201118852e-06  8.2335936657598284e-07  2.2989153339967110e-06  3.3884298828830630e-06  4.3137014696258650e-06  4.0821033760263502e-06  1.3950458225855405e-06  4.5935058463823392e-06  4.8112693423374155e-06  3.5370288551151282e-06  4.7483038588467705e-06  3.3243530613483937e-06  2.2628346867574702e-06  3.7176174607748336e-06  3.8275598703154265e-06  2.5138961551746975e-06  2.6771018452015273e-06  3.9168383241183204e-06  3.7010525565631269e-06  3.7693424871253627e-07  2.7747566556437905e-06  2.2393366640359094e-06  4.6634954423047774e-06  4.4512712041253450e-06  4.5988644465240187e-06  3.8698517433982816e-06  4.1803849669173618e-06  3.6094933854712963e-06  3.6710904945739477e-06  3.1809660647887340e-06  1.1897789738341501e-06  3.5359353586512426e-06  3.0086390340522054e-06  3.8906076902876213e-06  3.5236767957992209e-06  3.4068114917389431e-06  1.9420117270168836e-06  1.1343023867766558e-06  4.4494589725492282e-06  2.3913312201583634e-06  4.7744528764236896e-06  3.0517651970506386e-06  4.4768738900656571e-06  3.6215483930384799e-06  1.5267752717166487e-06  4.7503964126575690e-06  3.0954653826339544e-06  4.4822324656402319e-06  3.6904529814025690e-06  2.0515805809543663e-06  2.1466544898891653e-06  4.4549013256459718e-06  3.7616440928960774e-06  4.4183133792799038e-06  4.6391823687780573e-06  4.7200547789865715e-06  4.1023198441838609e-07  4.4294761301141488e-06  3.7719531845227104e-06  3.9308480513715921e-06  3.4511786814786996e-06  3.5741231985341075e-06  3.8890250163084128e-06  3.8267830630801001e-06  4.1151734939792559e-06  4.1649037535415828e-06  4.1102083219485211e-06  3.7723632683076468e-06  4.2704128165807246e-06  5.0355767408628621e-07  3.0488975441387369e-06  1.8199475187971729e-06  3.5759771875037850e-07  3.6899301365537042e-06  4.5992404176474105e-06  4.0861137755698772e-06  3.3622393762992172e-06  4.4608393557438470e-07  1.9855265885294009e-06  1.4175980672896000e-06  4.0536133143748200e-06  2.9565127049103079e-06  2.5258143789578417e-06  2.3158970970553008e-06  4.7620069621448265e-06  3.8384918372667268e-07  4.3352939019227996e-06  3.2480975398578618e-06  4.0667557334781857e-06  4.3303089602088014e-06  1.7083337767653402e-06  1.3129902254184692e-06  4.5572436008029364e-06  1.7405230661677110e-06  3.9707357780682183e-06  3.4805062447355492e-06  2.5842203191348966e-06  3.7338070613534590e-06  1.7349898614640026e-06  2.5346361375668145e-06  3.6591016370845497e-06  2.3839017670946745e-06  3.5253118166960325e-07  3.6532865976659464e-06  4.6962756995184260e-06  4.8398509223280462e-06  4.4833128327548375e-06  4.4664580793916922e-06  4.2200520858156269e-06  3.4785471648730578e-06  3.9955962780733952e-06  4.6317720401463407e-06  4.6758439997429337e-06  4.4749081577488144e-06  5.1246198568737001e-07  1.9306429943321429e-06  3.9733590145862769e-06  4.2780750628359192e-06  5.0408597108481543e-07  1.7638990487307257e-06  3.9037464614226824e-06  3.8955414490354993e-06  2.2259698640396491e-06  1.0140456330476829e-06  1.5593233867567301e-06  4.1782920162129421e-07  3.3658553483777120e-06  3.4665322160489574e-06  4.7444240990508695e-06  3.3668962883428260e-06  3.3959913514434732e-06  3.7962125202648865e-06  2.5177524256984591e-06  4.4338978228665612e-06  4.4811100997532093e-06  3.8682984366223207e-06  2.3812706399074970e-06  4.1304210165310925e-06  4.4475232409949061e-06  4.4567135988729941e-06  3.8442103285524126e-06  3.8710235243791591e-06  4.7837571762204441e-06  4.2814997586830886e-06  4.7368449614238680e-06  2.1323214152469158e-06  3.8169845632163763e-06  2.9793182698609951e-06  2.7298286288049026e-06  2.6360910428960096e-06  2.4378156994279029e-06  2.4925516706965354e-06  4.1402607308732474e-06  4.2039835931392802e-06  2.8534526136907878e-06  4.5753569262763548e-06  3.6936808889089049e-06  3.5403487217557006e-06  4.7964730480883932e-06  4.6701221212462863e-06  4.4126601987174945e-06  4.6372476044476414e-06  3.6492650413093149e-06  1.8545808969597450e-06  1.9014911007421805e-06  3.5239112535784870e-06  2.5479053845789371e-06  3.5471534773222293e-06  4.2623245872589111e-06  2.8931868187883568e-06  2.7583638116659109e-06  3.1323039443883523e-06  3.0709742207461560e-06  3.2290045707166091e-06  3.5651779940510339e-06  4.8081716563865669e-06  4.3993833173510072e-06  2.8686466595207668e-06  2.1547129225145255e-06  2.0204979390409996e-06  2.9413304904869889e-06  2.3093093609817647e-06  1.9022196191166603e-06  1.8931442660371337e-06  2.1405796189675580e-06  2.5816034589136614e-06  2.2768393199648243e-06  2.2029879893438830e-06  4.5906262115565769e-06  3.2952136141664702e-06  4.5050784789644177e-06  2.1612902524403451e-06  2.9209214363639968e-06  2.7436404510344918e-06  3.7706101194446969e-06  3.4431644435917417e-06  4.5512072066386135e-06  4.5355375902669571e-06  4.2576888602585803e-06  2.9752470426476732e-06  2.7918155481804724e-06  3.1744141242067557e-06  1.9240327261207971e-06  3.3665936193932083e-06  2.8955146274441941e-06  3.8769512356894794e-06  3.8717748804236641e-06  3.0299495407668254e-06  3.4599422220060484e-06  3.2502109360017124e-06  3.4958170451321888e-06  2.6357300841352291e-06  3.7645229086899060e-06  2.0570345377001144e-06  3.1651635180184592e-06  2.1495788407971309e-06  3.6607506349289830e-06  2.5976633354374178e-06  1.8476699888103404e-06  1.9018981345243746e-06  1.8883666337047746e-06  8.8566557891244413e-07  1.5184918620041285e-06  1.7007729626838470e-06  6.4411261054740140e-07  2.0313404269691000e-06  2.2868533552824799e-06  1.8430507738038540e-06  1.9312917774365944e-06  1.9057720017757185e-06  1.9512522467942925e-06  1.9100034843420279e-06  1.9770347314979819e-06  2.7531102868997059e-06  3.1516146473980063e-06  3.6685897788093479e-06  3.8454970470995660e-06  3.2641499776065604e-06  3.8628287077964614e-06  3.6008256124008245e-06  3.5334638988404162e-06  4.2882693924961208e-06  2.8079350077979710e-06  4.3636294786947250e-06  4.6591292807050638e-06  1.8930563288322769e-06  4.6215472976983851e-06  4.2894586589789184e-06  3.3216187834930034e-06  3.8819952063892760e-06  3.8403103369449276e-06  3.8663069176394473e-06  8.0335582927465930e-07  3.5726608422767330e-06  3.2376837902353483e-06  4.4768806515392996e-06  3.9905794107765192e-06  4.7100630794841077e-06  1.5771591175316561e-06  4.0315253171185115e-06  4.2863678944284961e-06  4.5546704686791551e-06  4.8292010809601745e-06  4.0205440287240234e-06  3.3162430546326241e-06  3.0385679747112236e-06  3.9438947427481675e-06  2.5446372343239777e-06  3.7003375706554241e-07  1.6834006401164745e-06  3.6963385181001475e-06  2.0106150667576397e-06  3.9099736813669342e-06  4.1656197118680720e-06  3.6001998206327370e-06  2.0716019637859481e-06  4.7986927895079338e-06  4.6222672532646927e-07  3.3854894525247025e-06  4.6015174511743869e-06  4.5273182899064671e-06  8.0199427294160596e-07  3.8941451378006209e-06  1.4894924508700115e-06  3.0328323259208919e-06  3.3818419044450713e-06  4.4445623533127050e-06  4.0919255241678840e-06  3.5692825596998892e-06  4.7878192817664887e-06  3.8434308470319841e-06  4.0404471731873825e-06  4.5578839477394660e-06  4.0978281494956459e-06  4.2516522588136875e-06  2.0677323247469582e-06  4.6445311852041037e-06  4.4668253366157139e-06  3.5074506553031206e-06  2.8869128236706285e-06  4.0754773483873327e-06  4.0021394448165615e-06  7.0601128778878944e-07  3.6152423341161741e-06  2.2769501645025002e-06  3.3807281963666762e-06  2.2620504504902334e-06  1.5833859415655900e-06  1.3262775026847978e-06  3.3849290202128528e-06  3.4186410913401725e-06  4.2101072999217498e-06  4.7657894012844355e-06  1.7583172310211012e-06  3.9786497957433246e-06  3.9686624391963664e-06  2.1655688153949318e-06  4.0258435199001602e-06  3.5964120302875370e-06  2.8112048928663481e-06  3.8274834783451742e-06  4.7792660456572244e-06  4.0457475007249662e-06  3.6589825564677577e-06  4.6045031022871206e-06  3.4406523955878715e-06  3.5220793436761803e-06  4.9584615634176309e-07  4.4068109975437501e-06  2.0474326749335983e-06  4.7425352135202176e-06  4.2148608252380990e-06  4.6814677276602498e-06  4.7154323275425465e-06  3.8531755330189988e-06  4.2870747511933408e-06  4.2347600951070398e-06  4.5010822169366463e-06  3.6028146506344290e-06  3.6374014579505440e-06  4.5489035417229400e-07  4.6980189335248738e-07  4.5548077086296466e-06  4.1634780014305911e-06  3.5653027123064181e-06  6.3745608176850427e-07  2.0294137131626982e-06  3.6026676108703029e-06  1.6371431937730788e-06  1.5048632963200459e-06  2.3527947312813100e-06  4.3214691315990979e-06  2.8479648799359175e-06  3.1357640769605657e-06  1.8736031619525625e-06  3.6825884495060738e-06  3.5722279225351784e-06  2.3945629857448001e-06  3.6752223351571331e-07  1.8967998867828810e-06  1.8824807377576253e-06  4.0290581271161091e-06  3.0018562146340433e-06  3.8860693942550887e-06  4.6488608827385321e-06  4.4269262922353303e-06  4.1995733329686650e-06  4.3914286761764872e-06  4.0086987721031276e-06  2.2974997783847447e-06  4.7787990840153012e-06  4.8249184997854219e-06  4.4182832371096482e-06  4.3766694645744842e-06  4.2366614603178423e-06  4.0087763392098053e-06  4.3775764415111410e-06  4.2828093039425286e-06  3.2331172937638047e-06  8.9240848336253083e-07  1.1805182009694567e-06  4.4356159312874997e-06  3.5722974825329587e-06  4.7831547674690836e-06  4.7095707252016576e-06  4.2518633704134129e-06  4.7160313219857759e-06  3.5440912331080089e-06  3.8392379459563031e-06  2.3787554900764863e-06  2.5469573757702545e-06  2.9409483989412214e-06  4.5150809216401196e-06  4.6273760187482206e-06  4.2741167843868317e-06  4.5126152886580262e-06  2.5237495507343463e-06  3.1371723480528098e-06  4.6271740682234158e-06  3.8330158330255327e-06  3.6505874953541524e-06  3.0566293779878990e-06  2.4848314300587208e-06  4.2913388423001241e-06  1.5616145302481321e-06  4.0436595763849746e-06  4.3928228514516605e-06  2.4060490450602290e-06  3.0407473177763578e-06  2.1081346459570549e-06  3.9467014447394974e-06  3.9868600190653653e-06  3.3242798576090321e-06  2.3101328874250522e-06  2.5853926957167933e-06  3.6506379653685544e-06  2.8965327649216616e-06  4.4034103201303611e-06  2.0745794396695114e-06  4.5987354810378988e-06  3.9862880852628489e-06  1.9851934987642977e-06  3.8998922882394203e-06  3.3557352624226903e-06  2.0049317522495279e-06  1.1045362953296093e-06  3.5275382483116056e-06  3.9569012582798735e-06  4.2879891087584004e-06  4.0388659463788257e-06  1.9262791871747548e-06  4.5534989646816724e-06  3.9140307364527372e-06  4.5257142681325177e-06  3.3626460337186484e-06  3.7740926065647169e-06  3.8000907768319471e-06  4.3183831692993570e-06  4.4027411016047046e-06  4.3721477078570461e-06  3.9362030216605048e-06  1.7605383900736354e-06  4.8356563294655340e-06  3.2735121067766747e-06  3.4656230117422792e-06  3.0735198851317368e-06  3.4819447048826194e-06  1.9255400551719335e-06  1.9996680141905506e-06  3.6728629711042131e-06  7.1483520594094649e-07  1.6433183706772595e-06  6.0713927893225086e-07  1.0271966315758493e-06  1.7575590882685736e-06  3.3673681433775187e-06  1.7820098517530818e-06  4.1359525530500520e-06  4.4376885965252320e-06  3.7785551251268410e-07  3.7388807139493283e-07  3.7848999513618515e-06  3.5696960691003801e-06  9.8519348765441860e-07  4.2944156765108155e-06  3.5671643009387301e-07  2.7544953541665787e-06  3.4012954165027809e-07  5.2099294402753216e-07  9.1980291233783871e-07  1.1426906089969329e-06  4.4695283743411340e-06  4.4520457607528902e-06  2.5408498392002838e-06  4.7100622068257270e-06  4.3660311974852023e-06  4.6628884587545887e-06  3.6667647540742615e-06  3.6034994441964710e-06  4.6778095198644681e-06  4.6641532971038188e-06  1.9432280423240877e-06  3.6376930060182478e-06  3.9693577182150979e-06  3.8651838093335369e-06  1.9718487556948460e-06  2.6145921632829729e-06  3.6787930971395331e-06  4.5191156775167380e-06  4.4278404938655123e-06  2.8900149266825074e-06  4.0286914162632471e-06  4.4199179082502745e-06  1.9312225686653270e-06  4.5188100454294937e-06  1.8524848358241717e-06  3.6918974625323366e-06  3.8508136346115203e-06  2.4113829753702763e-06  4.6434385960374136e-06  4.0930478122089