<?xml version="1.0"?>
<VTKFile type="UnstructuredGrid"  version="0.1"  >
<UnstructuredGrid>
<Piece  NumberOfPoints="2446" NumberOfCells="4585">
<Points>
<DataArray  type="Float64"  NumberOfComponents="3"  format="ascii">0 0.41 0  0 0 0  2.2 0 0  2.2 0.41 0  0.2404508497187474 0.2293892626146237 0  0.25 0.2 0  0.2404508497187474 0.1706107373853764 0  0.2154508497187474 0.1524471741852423 0  0.1845491502812526 0.1524471741852423 0  0.1595491502812526 0.1706107373853764 0  0.15 0.2 0  0.1595491502812526 0.2293892626146237 0  0.1845491502812527 0.2475528258147577 0  0.2154508497187474 0.2475528258147577 0  1.1 0 0  1.1 0.41 0  0 0.205 0  0.55 0 0  0.55 0.41 0  0.275 0 0  0.275 0.41 0  1.65 0.41 0  1.65 0 0  0.8250000000000001 0.41 0  0.8250000000000001 0 0  1.375 0 0  1.375 0.41 0  1.925 0 0  1.925 0.41 0  1.5125 0.205 0  1.7875 0.205 0  0.6875 0.205 0  0.9625000000000001 0.205 0  1.2375 0.205 0  2.2 0.205 0  0.4687002074688797 0.2068568464730291 0  1.99375 0.2152743902439024 0  2.0625 0 0  2.0625 0.41 0  2.2 0.3075 0  0.4125 0 0  0.4125 0.41 0  1.7875 0.41 0  1.375 0.1486128048780488 0  1.5125 0 0  1.7875 0 0  1.5125 0.41 0  0.8250000000000001 0.2613871951219511 0  0.9625000000000001 0.41 0  0.9625000000000001 0 0  0.6875 0.41 0  0.6875 0 0  0.1375 0 0  0.1375 0.41 0  1.2375 0 0  1.1 0.1486128048780487 0  1.2375 0.41 0  1.65 0.1486128048780487 0  1.126715909090909 0.2793064024390244 0  1.676715909090909 0.2793064024390244 0  0.8517159090909092 0.1306935975609756 0  1.348284090909091 0.2793064024390244 0  0.34375 0.3032389320646208 0  1.894702181800738 0.1282910975492754 0  2.092797818199262 0.1282910975492754 0  1.85625 0.3075 0  0.61875 0.3075 0  0.61875 0.1025 0  0.3648540804333487 0.1240075933101478 0  0 0.3075 0  0 0.1025 0  2.099172119769978 0.25625 0  0.48125 0.09238439620688085 0  0.5781001037344399 0.2059284232365146 0  0.48125 0.3196743479159776 0  0.7265881057911006 0.3055240343720796 0  1.99375 0.08395950269330846 0  1.459960956013612 0.3075 0  1.569025960719943 0.2986889805672169 0  0.75625 0.08213100772579164 0  1.03125 0.3278689922742084 0  0.923871252904788 0.3078247185783941 0  1.959375 0.3126371951219512 0  1.749222215368287 0.1025 0  1.275777784631713 0.1025 0  2.2 0.1025 0  1.225938124459196 0.3075 0  1.550777784631713 0.1025 0  1.000777784631713 0.1025 0  1.44375 0.07430640243902442 0  1.16875 0.07430640243902437 0  1.899250267340833 0.2229966846119207 0  0.1020898364287272 0.3140258291809757 0  1.766482954545455 0.2934032012195123 0  0.3405058858996321 0.2119987970531874 0  0.7710785630958338 0.1710968191298857 0  1.046078563095834 0.2389031808701144 0  0.2 0.3400647632937836 0  1.421109702350723 0.2261157654379721 0  0.2800464974185557 0.08982544815605742 0  0.098916018031319 0.09171660955420841 0  2.13125 0 0  2.118919042110979 0.3422084711244843 0  1.30625 0.41 0  0.89375 0 0  1.597888256393107 0.2173787389261347 0  0.20625 0 0  1.829299675393195 0.07400700849299596 0  1.71875 0.41 0  1.16875 0.41 0  2.038220665644273 0.332420740103091 0  0.34375 0 0  0.417496017710808 0.2696595573092803 0  0.2 0.07687845740457822 0  0.9295982307099278 0.1343158415898188 0  0.07390688010811153 0.1697064032433452 0  0.5238366813727013 0.2578302467013575 0  0.05452951551825875 0.25625 0  0.5229630068078351 0.1548816096928243 0  1.452769549894695 0.1548122580621249 0  1.369219062229598 0.07430640243902442 0  1.30625 0 0  0.8504409521244898 0.3356935975609756 0  0.8821881244591965 0.205 0  1.720943423819132 0.1714577452753128 0  1.157188124459196 0.205 0  1.094219062229598 0.07430640243902437 0  1.03125 0 0  1.304056576180868 0.1714577452753128 0  1.67579304192913 0.07430640243902437 0  0.2751941921308361 0.3346083473122598 0  1.209670467133757 0.1362100266964769 0  1.025335513626278 0.1700681449722324 0  0.7562500000000001 0.41 0  1.58125 0 0  0.7567170593862014 0.2409196493502535 0  0.6926714215682891 0.1272249611432207 0  0.4139715849905988 0.3397932387114203 0  0.9840787304190477 0.2717749043358119 0  0.06875000000000001 0.41 0  0 0.35875 0  0.9281250000000001 0.06276726142697993 0  0.5507396469029935 0.3219409231578227 0  0.5504468037989405 0.09136885600634273 0  1.58125 0.41 0  1.631724228912893 0.3381867502687533 0  1.825608881788174 0.14499488549201 0  1.85625 0 0  1.44375 0 0  1.44375 0.41 0  1.85625 0.41 0  2.13125 0.41 0  0.7562500000000001 0 0  0.89375 0.41 0  0.4812500000000001 0 0  0.34375 0.41 0  0.4812500000000001 0.41 0  0.20625 0.41 0  0.06875000000000001 0 0  1.16875 0 0  0.61875 0 0  0.61875 0.41 0  1.03125 0.41 0  1.71875 0 0  1.99375 0 0  1.99375 0.41 0  1.340625 0.3489494290853124 0  1.134375 0.3489494290853123 0  1.700180620188976 0.3438659752031281 0  2.135782184673599 0.07126652247502523 0  1.668441847249787 0.2129203728327609 0  1.295782514339747 0.2378437748815763 0  0.8233075729931248 0.06842334294821524 0  1.409375 0.3520314716057996 0  0.403505597322782 0.182067236678212 0  0.378125 0.05794951541303489 0  0.3043468223249023 0.1518321115979534 0  2.129248544730567 0.1906135162504124 0  2.060771381434487 0.1989445750470348 0  2.013252586573865 0.1496169464686054 0  1.942766402200229 0.1734448904596831 0  1.895522487186454 0.06076163953489683 0  2.069553871656643 0.06605731020975725 0  1.274680914880868 0.3520219391081363 0  1.614713220494657 0.09473434380863296 0  0.7899021319497519 0.3149123934144827 0  0.69518737419149 0.0634051089053758 0  0.2971740475496061 0.2592172353407536 0  1.72990325744076 0.2380068107952482 0  1.356580098625191 0.2120393231351682 0  2.034370752044885 0.2668681600792073 0  1.51768709249349 0.3426260931494756 0  1.561883724969884 0.1650446847858835 0  1.197344062229598 0.2523725417393646 0  1.804085235518364 0.3468178408964637 0  1.817887819205233 0.2589243285818559 0  1.905897727272727 0.3485060975609756 0  0.6719798073392919 0.2688965171178177 0  0 0.05125 0  0.653125 0.35875 0  0.6396896119294488 0.1627615407790282 0  0.4274150154087412 0.1242548552168279 0  1.192836486056382 0.3562350748565544 0  0.8279124365364005 0.183856489168822 0  1.097485222388854 0.2083571153401724 0  1.28257088594801 0.2944411014911587 0  1.474860187679412 0.2504218616229368 0  1.406767003493824 0.2829282258560709 0  0.446875 0.04619219810344041 0  0.515625 0.04585361801037557 0  0.592043440706648 0.05125 0  1.845656689180403 0.1998310418452388 0  2.144958525570388 0.2909790873294231 0  0.6171090763650112 0.2492366900333857 0  2.2 0.15375 0  0.5145586920831158 0.3648371739579888 0  1.57794966442982 0.3540357145964566 0  0.721875 0.3633107922168974 0  0.0496154796471391 0.333125 0  0.5843750000000001 0.3662560860076676 0  0.5810878747760798 0.1474002776121195 0  1.508991196088596 0.1421783375065625 0  0.8840670607017558 0.2640994375393898 0  0.09776612425612034 0.2204896805326566 0  1.50436820029908 0.06143401634903343 0  1.223857000523521 0.0823554862453532 0  1.153316824384777 0.1289850171317837 0  2.148922302309752 0.1258841779285271 0  0.309375 0.04312325590431198 0  1.621993280276081 0.2841214267927899 0  1.550118654119087 0.2461998729100966 0  1.327182649291491 0.1216967252533594 0  1.051977450479407 0.1221382572915816 0  1.753125 0.04556020050186112 0  1.271875 0.04556020050186116 0  0.9816084133102366 0.05126138213476004 0  1.039051841454368 0.0572224914831029 0  0.9719230514536006 0.3480477870845102 0  1.94956388244759 0.1180512551534177 0  1.949997712993411 0.04965831614304109 0  1.771961817615021 0.1530278789497521 0  1.909246823951428 0.2812757146784527 0  0.2459536687882397 0.04668633953831142 0  1.948575539857022 0.2445328248721197 0  1.697271520964565 0.1233917627620729 0  0.7964897648514618 0.1211426571931604 0  1.065625 0.3689344961371042 0  1.085849084308977 0.3170853572226867 0  0.4702981435440001 0.260434880697798 0  1.577403511714593 0.05463601888079143 0  0.05622663515370135 0.05493816910862376 0  0.3267207591099919 0.3566194660323104 0  0.9003051618565143 0.3564049499960621 0  1.751571320346033 0.3651102912045228 0  0.1583785085108421 0.2994699345738728 0  0.1455283439499995 0.3542795598723423 0  2.2 0.35875 0  0.2347662494194072 0.298325008655211 0  0.1527284455616188 0.1065771775690181 0  0.1382139529076665 0.05427454456341477 0  0.8749341636311069 0.05110114999892954 0  0.643661668713109 0.05693499781019222 0  1.466879772203159 0.3611261772912453 0  1.990280163552011 0.3564754268533217 0  1.17471064520912 0.2990917256188288 0  0.5202693090594349 0.206382495511728 0  0 0.25625 0  2.2 0.25625 0  2.2 0.05125 0  0 0.15375 0  1.853978576207987 0.35875 0  0.9787513713939683 0.1487523696999336 0  0.240625 0.3722153812029779 0  1.515638456102889 0.2882700110184686 0  0.09048297387599738 0.3637717362208066 0  2.150453692751374 0.2387066338105111 0  1.323782677156475 0.04897634338873398 0  0.8074131292871642 0.3624701995505916 0  1.409375 0.03715320121951221 0  1.406484531114799 0.1087852750766809 0  1.134375 0.03715320121951218 0  1.627401732573545 0.04552157221025036 0  0.1170173172005315 0.1427610859166811 0  2.045405893604797 0.1105340662939892 0  1.255408269734577 0.1577307500159216 0  2.028125 0.03707597992059326 0  0.4743610090857199 0.1421513964721819 0  0.9354010469015898 0.250631300585664 0  0.04420832937638274 0.128125 0  0.8922386349349938 0.0992956419364831 0  0.1197849154434487 0.2663398672460083 0  1.248258025468107 0.2565907092181813 0  0.3746885856929528 0.370723531618974 0  1.203125 0.0366132337404304 0  0.5724622277005015 0.2751253816079333 0  0.3365425205162783 0.08395777655057959 0  2.072662025974815 0.2975086504196739 0  0.4581080832182547 0.3648371739579888 0  0.3874522734668214 0.2295447548840689 0  0.7827853612484443 0.04106550386289586 0  1.887722846421017 0.1760882698830035 0  1.472640588990488 0.1118278026240017 0  1.865937103925594 0.2604137786483804 0  1.463913572748262 0.2030442564990043 0  1.376426316059077 0.3186741374914345 0  0.6641993820150034 0.3141688596240831 0  0.2943117490824315 0.2130987422685822 0  0.3478153998082709 0.1666571081082676 0  0.3427990510599805 0.2575950027870776 0  0.7997118993855807 0.2216171933356366 0  
[...]
<PointData  Scalars="f_10-2"> 
<DataArray  type="Float64"  Name="f_10-2"  format="ascii">3.9131847688421316e-07  5.0988101519148338e-07  3.9833627393934861e-06  3.7715014246372143e-06  2.2803202990578710e-06  2.7898851066829001e-06  2.1588555513739439e-06  1.1868371602199236e-06  7.3464566317958101e-07  5.5447899157457217e-07  5.0242477072612441e-07  5.6983042741523151e-07  7.8351024035294590e-07  1.2693139316369547e-06  3.0738570661238149e-06  2.8247226898718517e-06  4.1110924835845905e-07  2.0537988787212381e-06  2.0581707595815923e-06  1.9104496770248910e-06  1.7735388142033260e-06  3.5355313978526045e-06  3.8046245434096723e-06  2.3444213161904009e-06  2.4839757908892333e-06  3.5260172683172686e-06  3.2437174606308017e-06  3.9453911786828656e-06  3.7003687201874190e-06  4.9083005842903685e-06  4.7895470563312543e-06  4.4489558147019702e-06  4.8574751911497639e-06  4.9576035067496830e-06  4.5529910802904054e-06  3.5868072641691290e-06  4.6575051860846540e-06  3.9774747846754898e-06  3.7481091208300489e-06  4.1267316093947542e-06  2.0291364316156069e-06  2.0135353315474495e-06  3.6306395777630529e-06  4.7271491627546905e-06  3.6876620056584910e-06  3.8882274199898774e-06  3.4059125411315403e-06  4.1082989874417818e-06  2.5815743936050498e-06  2.7855040139149081e-06  2.1528884667455347e-06  2.2099065420286920e-06  1.2452009299140238e-06  9.6181576198643334e-07  3.3269985692930119e-06  4.6385856086939049e-06  3.0514372302006772e-06  4.7003934260303267e-06  4.2058002259622886e-06  4.4006580051673916e-06  4.0671869396122769e-06  4.3460626738834666e-06  2.0814512516333619e-06  4.5084030637587870e-06  4.4419976477922058e-06  4.1555103780284955e-06  2.7568084119981400e-06  2.8776871153536341e-06  2.0207188814743276e-06  3.7984727628559857e-07  4.3678086994649002e-07  4.4492481573781814e-06  2.2632938917593968e-06  4.0913488234649540e-06  2.2838065603203243e-06  3.0766205988599276e-06  4.2264275842275224e-06  4.0453554166466837e-06  4.1909799931311130e-06  2.9561023565736459e-06  3.3053939275213075e-06  3.4523839044984973e-06  4.1192803941315564e-06  4.3474617135096138e-06  4.1619104567309349e-06  4.2856525001020035e-06  3.8669497978588096e-06  4.3118027969040742e-06  3.8358953808891243e-06  3.9723823223164146e-06  3.6692856521147592e-06  4.6899829361611928e-06  8.5657082387952896e-07  4.2731179068855833e-06  2.8500173356152315e-06  4.4885530801366321e-06  4.6952931109092471e-06  1.7693703481407874e-06  4.8649787582453188e-06  1.7267470102990638e-06  8.7570595196100115e-07  3.9814748716990969e-06  3.9394029208326083e-06  3.1533573486492550e-06  2.6334958965196541e-06  4.8488835135121645e-06  1.6857442844854119e-06  4.1564262626727766e-06  3.5887931132892259e-06  2.9412937796333673e-06  3.9904589346176163e-06  2.0036960250188446e-06  2.5109579620776860e-06  1.6186714700514836e-06  4.2618160648564209e-06  4.2411154657801422e-07  3.2345315811722550e-06  4.0304235871841768e-07  3.3860438139984031e-06  4.7756717362111982e-06  3.9073342349798326e-06  3.4256066049163106e-06  2.8675019026451388e-06  4.7934417754842557e-06  4.7848498679572879e-06  4.9499553575941400e-06  3.5570723987125345e-06  2.9392558905293637e-06  4.8889696641564192e-06  4.1110288531775174e-06  1.9517509141456191e-06  4.5525424722234837e-06  4.8008703629644206e-06  2.2346846474835180e-06  3.7531471085708082e-06  4.2985877591529462e-06  3.5947816807402978e-06  2.1130412951439222e-06  4.1791392240244178e-06  5.1301315568744312e-07  3.7740451751743930e-07  3.0858512870785966e-06  2.4074734777103549e-06  2.4738902805380637e-06  3.4741571935785681e-06  3.8268513440167571e-06  4.6267393752480073e-06  3.9200489528103711e-06  3.6073953474821177e-06  3.3312515091613902e-06  3.6729003766881250e-06  3.7629367324590955e-06  2.3357025436933582e-06  2.4536025367794859e-06  2.0324968252585588e-06  1.9406949191613782e-06  2.0386433590315999e-06  1.4493620547347018e-06  6.9909629284569443e-07  3.2103968893949844e-06  2.1133502320674554e-06  2.0946588892992088e-06  2.6989026505899980e-06  3.8489125842416107e-06  3.9608295649883252e-06  3.7299323699517420e-06  3.4708269854614299e-06  3.1968387947313604e-06  3.8174808053124722e-06  4.1533636356993665e-06  4.8309262739561466e-06  4.7895686226727667e-06  2.9180362348502040e-06  3.5250231114142599e-06  3.0737724843327593e-06  2.0054659485535744e-06  1.9572086621883593e-06  4.5948123388306862e-06  4.6378722876671723e-06  4.5694975872476562e-06  4.6813718245315539e-06  4.0942710948774350e-06  4.1338772392384326e-06  3.3649981824419868e-06  4.2593213298019257e-06  3.0618915965208116e-06  2.5421366405000282e-06  1.9685256072795633e-06  4.7043327426441537e-06  4.9342347331828115e-06  4.4182238773022980e-06  3.7069014849751758e-06  4.8157938411003867e-06  4.6213085716672747e-06  3.8452412487886798e-06  4.5446507196502379e-06  3.8721107351065333e-06  3.5971586968311563e-06  4.7222969433205347e-07  2.2679820873365085e-06  4.0303870847046913e-06  2.3314143791685773e-06  3.2092006515617934e-06  4.6925590536538851e-06  4.9372760489297649e-06  4.1047371142276990e-06  4.6818157017953003e-06  4.3232134137793379e-06  2.0470680863315091e-06  2.0981497105368846e-06  2.2168050539064723e-06  4.7616346641554194e-06  4.2358296446889941e-06  3.7677007401980931e-06  4.4944722335255690e-06  2.1075759803744208e-06  3.6619913805123824e-06  2.3359003546154674e-06  4.0849838951040238e-07  2.1529965343242538e-06  3.5395798630482918e-06  4.6749452240727674e-06  4.1622898678436623e-06  4.3353985271558423e-07  3.9102813996775192e-06  3.8454121140596296e-06  4.4239124915361988e-06  4.4084548064495492e-06  1.9403166909602623e-06  4.3547306748875246e-06  4.7069205436260102e-06  4.4348379287278451e-06  4.2296644299127796e-06  3.9673202256315208e-06  3.5263641075584549e-06  3.0613579341113312e-06  3.2453890242064078e-06  2.9346503169075914e-06  4.4330200665655066e-06  4.0504045614759031e-06  4.6886338924227542e-06  4.3586587641045503e-06  1.8248110713684467e-06  4.5778336477578457e-06  4.5112014436642326e-06  3.7701473234820989e-06  2.8967895049622222e-06  3.5557674529581433e-06  2.9187450761344438e-06  3.9183235070903700e-06  5.5345426729031439e-07  1.9807459325334047e-06  2.7066810188668487e-06  3.7110602182912030e-06  1.3723263881936398e-06  1.2860112937072361e-06  3.8685362040408235e-06  1.5866595356111866e-06  1.1961398261250921e-06  1.3575878128180403e-06  2.8222379826999603e-06  2.3539547471890443e-06  3.5113693894576106e-06  3.8512253077077850e-06  3.9429484576313774e-06  3.8517522676511022e-06  3.9778651612963721e-07  4.4059989565090463e-06  4.0706668490181868e-06  4.2311942706078068e-07  3.7972596902186575e-06  4.5352928564307230e-06  1.7197270016001731e-06  4.2917237821752418e-06  6.2087599252682506e-07  4.4977758445628885e-06  3.6220157177549901e-06  2.4839270026336208e-06  3.6567224352754460e-06  4.3217685882016936e-06  3.2430060104992058e-06  3.8980840688163613e-06  6.6382691526846404e-07  4.3672292347677001e-06  4.7909600378855443e-06  4.0214452176954676e-06  2.8744995790547082e-06  4.4452615769025966e-06  4.4167166848333751e-07  3.5806754051450026e-06  7.8542023163317041e-07  4.5886470900371406e-06  2.0080907796755257e-06  3.3642362396040931e-06  3.1345694293126987e-06  1.9147011133794968e-06  4.2130239908223302e-06  2.0788249085138026e-06  2.9044584827763784e-06  2.5239399999873969e-06  4.7192426169590616e-06  4.3798626525229698e-06  4.5182893205302035e-06  4.9294243526214833e-06  3.8491540977428701e-06  2.7743734724226864e-06  2.7466744760069322e-06  2.4204941180015217e-06  2.2169942354120138e-06  4.5947969337193438e-06  4.3688058826950121e-06  4.6321294340300120e-06  4.0296136142583509e-06  4.3486647516209261e-06  3.6972418536137267e-06  4.7603821633848240e-06  4.0663630093601539e-06  4.5587857492085964e-06  4.9456022228103788e-06  1.5159957364588362e-06  3.7392394366587850e-06  4.6548862783311938e-06  4.3049994896720372e-06  4.1365246037190739e-06  4.1907360022278454e-06  4.0971915257555877e-07  4.4774446723391892e-06  3.9917352935935527e-06  3.7565754612211607e-06  3.8385101859210735e-06  8.8861941804523059e-07  2.4206738260287759e-06  3.5059006891467421e-06  4.4262510292389950e-06  4.1959752078817788e-06  1.4959947428658760e-06  4.7155780615101274e-06  4.9325748698295241e-06  3.6483760347149214e-06  4.8659857792237970e-06  3.4429315748122716e-06  2.3953683465272925e-06  3.8271379156905323e-06  3.9377696923129571e-06  2.6430447866567669e-06  2.8063696339541824e-06  4.0229107458274872e-06  3.8111546178695636e-06  4.1563736400552573e-07  2.8957812900964550e-06  2.3745515716016859e-06  4.7859093265928303e-06  4.5726870970784534e-06  4.7178591350979524e-06  3.9792816117793453e-06  4.2913143701084864e-06  3.7202469158066884e-06  3.7842916474495371e-06  3.2960474742632048e-06  1.2659785908109092e-06  3.6502492527205711e-06  3.1248528882405926e-06  4.0078519169419547e-06  3.6410712021033119e-06  3.5256521329988098e-06  2.0629033507185459e-06  1.2256776063344754e-06  4.5612026774365497e-06  2.5221501213929758e-06  4.8935327607994476e-06  3.1764686118778926e-06  4.5888249610754904e-06  3.7337843418325838e-06  1.6330368434987106e-06  4.8722448697989161e-06  3.2061098383967371e-06  4.6019384488155408e-06  3.8200707677120062e-06  2.1829467732134646e-06  2.2812800059626299e-06  4.5780210837833670e-06  3.8791390490342755e-06  4.5444047491594932e-06  4.7635970418223870e-06  4.8410636407021797e-06  4.4676380301712165e-07  4.5405466314864352e-06  3.8955270428876235e-06  4.0386757391984879e-06  3.5815113404425400e-06  3.6874636821071882e-06  3.9979101532472559e-06  3.9345994866248219e-06  4.2250613194566926e-06  4.2794098253614489e-06  4.2222099018958587e-06  3.8827191564658780e-06  4.3840159024940736e-06  5.4920676737101182e-07  3.1800243994415347e-06  1.9371681339095954e-06  3.9457279302916926e-07  3.8018098504019884e-06  4.7170882571363513e-06  4.2061513739637526e-06  3.4911773818167860e-06  4.8665620016631648e-07  2.1112642570306370e-06  1.5120549403461560e-06  4.1645532066958382e-06  3.0772540613343695e-06  2.6567396994597077e-06  2.4523003619923213e-06  4.8805390959166736e-06  4.1935574639655292e-07  4.4603637301947981e-06  3.3679397629985655e-06  4.1753208171202949e-06  4.4520031306952735e-06  1.8342811329976345e-06  1.4137206384369521e-06  4.6778494180388397e-06  1.8715937179265816e-06  4.0895888090765126e-06  3.5948326116655207e-06  2.7013247061444927e-06  3.8508965636125329e-06  1.8353331858319181e-06  2.6670858761494817e-06  3.7823196771504003e-06  2.5166166968155057e-06  3.8712256318430708e-07  3.7647631763082393e-06  4.8131184150377354e-06  4.9615040979266081e-06  4.5976021641132666e-06  4.5847165924319296e-06  4.3363912517800083e-06  3.5916796237990868e-06  4.1142244552165887e-06  4.7476355867889242e-06  4.7948553312192666e-06  4.5873800960940784e-06  5.5505768692064860e-07  2.0647456276021069e-06  4.0907614852790218e-06  4.3960016151945740e-06  5.4768360242197369e-07  1.8852885637933195e-06  4.0230513288068981e-06  4.0138384218426037e-06  2.3478788985097431e-06  1.0813596796829812e-06  1.6477993958508653e-06  4.5688931744481508e-07  3.4877883994723871e-06  3.5843611788177869e-06  4.8621491319081066e-06  3.4862304042355501e-06  3.5155067636613169e-06  3.9045747829665053e-06  2.6525015460769990e-06  4.5475582412695419e-06  4.5951541418045458e-06  3.9838595821349131e-06  2.4745763432602604e-06  4.2430935311700753e-06  4.5604043638462793e-06  4.5687724184335715e-06  3.9608007571410669e-06  3.9836094016108971e-06  4.9073349797326669e-06  4.4016097708276833e-06  4.8592686727896880e-06  2.2555103569061310e-06  3.9310655700960347e-06  3.1068031387259041e-06  2.8477400486466528e-06  2.7546788057092679e-06  2.5568178059727300e-06  2.6122711696513437e-06  4.2483807318153314e-06  4.3129983036149090e-06  2.9704124067471757e-06  4.6899228232623448e-06  3.8044732243419697e-06  3.6706067763906788e-06  4.9193920886505263e-06  4.7946323213819175e-06  4.5253934507635770e-06  4.7524813332308323e-06  3.7748869629739922e-06  1.9778329566249096e-06  2.0406942508025441e-06  3.6432769282329557e-06  2.6467346111116706e-06  3.6761509524109160e-06  4.3833114787140813e-06  3.0192268110455422e-06  2.8844814754560890e-06  3.2555633058390869e-06  3.1930559690900750e-06  3.3511040538589771e-06  3.6916227214065899e-06  4.9277072809741290e-06  4.5102492080557333e-06  2.9933455825269364e-06  2.2890598697214064e-06  2.1600903622655913e-06  3.0482253746451907e-06  2.4163963599549749e-06  2.0293216250557392e-06  2.0219699343106937e-06  2.2787247989477454e-06  2.7151932332862668e-06  2.4142667897114658e-06  2.3407924217585862e-06  4.7050376083518133e-06  3.4095524713205685e-06  4.6308636352162876e-06  2.2836031381934066e-06  3.0385832885799122e-06  2.8633515514816256e-06  3.8927715994314974e-06  3.5595500344029403e-06  4.6646002235073709e-06  4.6486135578281278e-06  4.3725142205572337e-06  3.0986132711476284e-06  2.9186713722022617e-06  3.2894944324037757e-06  2.0511976046303502e-06  3.4792484143175020e-06  3.0113037276806616e-06  3.9824507937892188e-06  3.9778332807466010e-06  3.1448569883269589e-06  3.5719438739833310e-06  3.3699347974407248e-06  3.6111908322702950e-06  2.7633240118636499e-06  3.8735036215183924e-06  2.1932493185325614e-06  3.2860446701294076e-06  2.2715254217362838e-06  3.7702943656241433e-06  2.7154740443196045e-06  1.9855535381247882e-06  2.0306188996565710e-06  2.0287444017086809e-06  9.5561355251695822e-07  1.6353000763715083e-06  1.8194667679835369e-06  7.0184150249507899e-07  2.1550215984812336e-06  2.4072278064944498e-06  1.9693817364303490e-06  2.0708464030832871e-06  2.0463338180174453e-06  2.0768092674866747e-06  2.0373824574611522e-06  2.1150280823029012e-06  2.8698647054491397e-06  3.2657005165255006e-06  3.7787203134300736e-06  3.9527073496461148e-06  3.3774933486220503e-06  3.9694756352370215e-06  3.7131619990541023e-06  3.6498992392031832e-06  4.3988195203498540e-06  2.9284390875826746e-06  4.4799244275065611e-06  4.7794708932467321e-06  2.0091325380760276e-06  4.7440992278604549e-06  4.4128686019372848e-06  3.4477410493459539e-06  4.0022575867811709e-06  3.9612083495261455e-06  3.9743981629131688e-06  8.6105373964945998e-07  3.6941420572371153e-06  3.3586815814361543e-06  4.5951553902605700e-06  4.1057669876311161e-06  4.8275218111876512e-06  1.6783547924575587e-06  4.1571488020539968e-06  4.3984105219876909e-06  4.6733016929297555e-06  4.9507213920617059e-06  4.1353457775236810e-06  3.4360789126188835e-06  3.1705270635079822e-06  4.0707918289042014e-06  2.6745051615457966e-06  4.0485265170868013e-07  1.7925196874992611e-06  3.8070746698645198e-06  2.1493485527264873e-06  4.0168738434184695e-06  4.2745489999471606e-06  3.7185023135157265e-06  2.2089979755523806e-06  4.9185988362556475e-06  5.0214390696535101e-07  3.5102630745350531e-06  4.7163153386297618e-06  4.6406827311886584e-06  8.6985686278971087e-07  4.0063319784331318e-06  1.5899633602957779e-06  3.1652682919487200e-06  3.5127195695125464e-06  4.5706768439742574e-06  4.2053765396776705e-06  3.6842913172946965e-06  4.9114302470764467e-06  3.9590779576330685e-06  4.1585196016170825e-06  4.6742350032820561e-06  4.2072826288194794e-06  4.3638752498384010e-06  2.1866494216494053e-06  4.7664664030185994e-06  4.5824288879488944e-06  3.6275727986218340e-06  3.0174803747441901e-06  4.1887147371171436e-06  4.1142638928591341e-06  7.5724157576011590e-07  3.7287313164613306e-06  2.3828817120202985e-06  3.4993962016065124e-06  2.3595135346667574e-06  1.6756237519641037e-06  1.4219785114820716e-06  3.5036224536757220e-06  3.5368509897529042e-06  4.3290386454234782e-06  4.8841258788169137e-06  1.8745992740577443e-06  4.0942628203326130e-06  4.0884412065652864e-06  2.2880462994379985e-06  4.1485611640327070e-06  3.7103543448823848e-06  2.9451227647274666e-06  3.9414804584261358e-06  4.9000128464759392e-06  4.1660671299763871e-06  3.7699508378607009e-06  4.7211517303964824e-06  3.5582390667340944e-06  3.6476609002701610e-06  5.3680516628486797e-07  4.5245156805210800e-06  2.1718573418058710e-06  4.8653674576092361e-06  4.3394910528373072e-06  4.8053553306504486e-06  4.8324790829222893e-06  3.9665535641174402e-06  4.4041227407374106e-06  4.3511806571013640e-06  4.6139222383318357e-06  3.7144339395073219e-06  3.7499006844155512e-06  4.9724330186113555e-07  5.1302730675154190e-07  4.6712536743284175e-06  4.2739994070583031e-06  3.6893221534521083e-06  6.8860811523757343e-07  2.1675692567422157e-06  3.7223369914926712e-06  1.7510247604126646e-06  1.6172544196916472e-06  2.4857889514155275e-06  4.4325229343982417e-06  2.9703830011391341e-06  3.2582215864233409e-06  2.0021332485447610e-06  3.7981785508422665e-06  3.6866266111852525e-06  2.5260541310601880e-06  4.0224405428651956e-07  2.0117590257856958e-06  2.0095999574909597e-06  4.1367202255424980e-06  3.1345543468445293e-06  3.9952725606653157e-06  4.7724342856398072e-06  4.5417238496675251e-06  4.3153748290209169e-06  4.5034642498876325e-06  4.1351496967520343e-06  2.4199813655366362e-06  4.9005658974220210e-06  4.9474927697452306e-06  4.5396922470772022e-06  4.4956628185798495e-06  4.3576340692785496e-06  4.1157150280524476e-06  4.5037325412448467e-06  4.3963655690880439e-06  3.3510365731543516e-06  9.6399434064960970e-07  1.2669555918474483e-06  4.5514106293840181e-06  3.7018596100255193e-06  4.9043606479901570e-06  4.8305049640129100e-06  4.3732196913645904e-06  4.8364127850399301e-06  3.6562898099738095e-06  3.9543385216384670e-06  2.4989799238752326e-06  2.6684529615803526e-06  3.0703609391306402e-06  4.6384301838007818e-06  4.7512043108480639e-06  4.3967146874449271e-06  4.6344437415661867e-06  2.6580245348482680e-06  3.2532970793676347e-06  4.7426025225290997e-06  3.9614766798519422e-06  3.7787946681769637e-06  3.1881942378269837e-06  2.6201128497429640e-06  4.4006930358766633e-06  1.6693980323050792e-06  4.1681200362728575e-06  4.5165043967712829e-06  2.5394122978398660e-06  3.1643399245666446e-06  2.2440512665846207e-06  4.0574725708561520e-06  4.1151691469781508e-06  3.4513476569577837e-06  2.4328821483512998e-06  2.6892560044575027e-06  3.7626889699843045e-06  3.0130029177577744e-06  4.5293233429514621e-06  2.1988382817651794e-06  4.7159929839426544e-06  4.1051389777876976e-06  2.1086330385387928e-06  4.0202509162876733e-06  3.4760277238801893e-06  2.1295001707430403e-06  1.1778156879161756e-06  3.6429177975221250e-06  4.0686568829288375e-06  4.4007315062531669e-06  4.1504540746069715e-06  2.0666591598081667e-06  4.6694668265603170e-06  4.0276654899697960e-06  4.6463905325700422e-06  3.4762074094619438e-06  3.8834792023395364e-06  3.9092060205455113e-06  4.4328733154929607e-06  4.5251148540238169e-06  4.4910712489633077e-06  4.0538172139985431e-06  1.8741084742440645e-06  4.9563143596771516e-06  3.3987647211464937e-06  3.5934682732265809e-06  3.2015816725874741e-06  3.6124308601827813e-06  2.0659394313601669e-06  2.1391270565934701e-06  3.7880114741488532e-06  7.7214488664660385e-07  1.7533322210564911e-06  6.5913442409823804e-07  1.1104359078038433e-06  1.8778055887171824e-06  3.4838418594139407e-06  1.9145645645859410e-06  4.2565380066901479e-06  4.5488707572154965e-06  4.1287373794695782e-07  4.0885248272452611e-07  3.9044485749078521e-06  3.6882760053846470e-06  1.0528629577318302e-06  4.4057307011897933e-06  3.9212390123069383e-07  2.8740097888459766e-06  3.7510922183693029e-07  5.6735666172718570e-07  9.8475222025316818e-07  1.2228531325969033e-06  4.5821624896882462e-06  4.5653318451291195e-06  2.6759407037369153e-06  4.8300494463336475e-06  4.4861366098598268e-06  4.7824730227699632e-06  3.7898972920266377e-06  3.7196542109329101e-06  4.7945968664663629e-06  4.7801200856118628e-06  2.0832322259100265e-06  3.7535204453422594e-06  4.0781788615717342e-06  3.9729467053481695e-06  2.1073967182173157e-06  2.7236858084357608e-06  3.7956413007647852e-06  4.6414614793330958e-06  4.5414934078674413e-06  3.0153350458415147e-06  4.1506431270148197e-06  4.5410752614168787e-06  2.0580081330477288e-06  4.6323219447256460e-06  1.9785374016739615e-06  3.8163910866844311e-06  3.9699232133660217e-06  2.5410486480493953e-06  4.7615741144789482e-06  4.2105462048663