<?xml version="1.0"?>
<VTKFile type="UnstructuredGrid"  version="0.1"  >
<UnstructuredGrid>
<Piece  NumberOfPoints="2446" NumberOfCells="4585">
<Points>
<DataArray  type="Float64"  NumberOfComponents="3"  format="ascii">0 0.41 0  0 0 0  2.2 0 0  2.2 0.41 0  0.2404508497187474 0.2293892626146237 0  0.25 0.2 0  0.2404508497187474 0.1706107373853764 0  0.2154508497187474 0.1524471741852423 0  0.1845491502812526 0.1524471741852423 0  0.1595491502812526 0.1706107373853764 0  0.15 0.2 0  0.1595491502812526 0.2293892626146237 0  0.1845491502812527 0.2475528258147577 0  0.2154508497187474 0.2475528258147577 0  1.1 0 0  1.1 0.41 0  0 0.205 0  0.55 0 0  0.55 0.41 0  0.275 0 0  0.275 0.41 0  1.65 0.41 0  1.65 0 0  0.8250000000000001 0.41 0  0.8250000000000001 0 0  1.375 0 0  1.375 0.41 0  1.925 0 0  1.925 0.41 0  1.5125 0.205 0  1.7875 0.205 0  0.6875 0.205 0  0.9625000000000001 0.205 0  1.2375 0.205 0  2.2 0.205 0  0.4687002074688797 0.2068568464730291 0  1.99375 0.2152743902439024 0  2.0625 0 0  2.0625 0.41 0  2.2 0.3075 0  0.4125 0 0  0.4125 0.41 0  1.7875 0.41 0  1.375 0.1486128048780488 0  1.5125 0 0  1.7875 0 0  1.5125 0.41 0  0.8250000000000001 0.2613871951219511 0  0.9625000000000001 0.41 0  0.9625000000000001 0 0  0.6875 0.41 0  0.6875 0 0  0.1375 0 0  0.1375 0.41 0  1.2375 0 0  1.1 0.1486128048780487 0  1.2375 0.41 0  1.65 0.1486128048780487 0  1.126715909090909 0.2793064024390244 0  1.676715909090909 0.2793064024390244 0  0.8517159090909092 0.1306935975609756 0  1.348284090909091 0.2793064024390244 0  0.34375 0.3032389320646208 0  1.894702181800738 0.1282910975492754 0  2.092797818199262 0.1282910975492754 0  1.85625 0.3075 0  0.61875 0.3075 0  0.61875 0.1025 0  0.3648540804333487 0.1240075933101478 0  0 0.3075 0  0 0.1025 0  2.099172119769978 0.25625 0  0.48125 0.09238439620688085 0  0.5781001037344399 0.2059284232365146 0  0.48125 0.3196743479159776 0  0.7265881057911006 0.3055240343720796 0  1.99375 0.08395950269330846 0  1.459960956013612 0.3075 0  1.569025960719943 0.2986889805672169 0  0.75625 0.08213100772579164 0  1.03125 0.3278689922742084 0  0.923871252904788 0.3078247185783941 0  1.959375 0.3126371951219512 0  1.749222215368287 0.1025 0  1.275777784631713 0.1025 0  2.2 0.1025 0  1.225938124459196 0.3075 0  1.550777784631713 0.1025 0  1.000777784631713 0.1025 0  1.44375 0.07430640243902442 0  1.16875 0.07430640243902437 0  1.899250267340833 0.2229966846119207 0  0.1020898364287272 0.3140258291809757 0  1.766482954545455 0.2934032012195123 0  0.3405058858996321 0.2119987970531874 0  0.7710785630958338 0.1710968191298857 0  1.046078563095834 0.2389031808701144 0  0.2 0.3400647632937836 0  1.421109702350723 0.2261157654379721 0  0.2800464974185557 0.08982544815605742 0  0.098916018031319 0.09171660955420841 0  2.13125 0 0  2.118919042110979 0.3422084711244843 0  1.30625 0.41 0  0.89375 0 0  1.597888256393107 0.2173787389261347 0  0.20625 0 0  1.829299675393195 0.07400700849299596 0  1.71875 0.41 0  1.16875 0.41 0  2.038220665644273 0.332420740103091 0  0.34375 0 0  0.417496017710808 0.2696595573092803 0  0.2 0.07687845740457822 0  0.9295982307099278 0.1343158415898188 0  0.07390688010811153 0.1697064032433452 0  0.5238366813727013 0.2578302467013575 0  0.05452951551825875 0.25625 0  0.5229630068078351 0.1548816096928243 0  1.452769549894695 0.1548122580621249 0  1.369219062229598 0.07430640243902442 0  1.30625 0 0  0.8504409521244898 0.3356935975609756 0  0.8821881244591965 0.205 0  1.720943423819132 0.1714577452753128 0  1.157188124459196 0.205 0  1.094219062229598 0.07430640243902437 0  1.03125 0 0  1.304056576180868 0.1714577452753128 0  1.67579304192913 0.07430640243902437 0  0.2751941921308361 0.3346083473122598 0  1.209670467133757 0.1362100266964769 0  1.025335513626278 0.1700681449722324 0  0.7562500000000001 0.41 0  1.58125 0 0  0.7567170593862014 0.2409196493502535 0  0.6926714215682891 0.1272249611432207 0  0.4139715849905988 0.3397932387114203 0  0.9840787304190477 0.2717749043358119 0  0.06875000000000001 0.41 0  0 0.35875 0  0.9281250000000001 0.06276726142697993 0  0.5507396469029935 0.3219409231578227 0  0.5504468037989405 0.09136885600634273 0  1.58125 0.41 0  1.631724228912893 0.3381867502687533 0  1.825608881788174 0.14499488549201 0  1.85625 0 0  1.44375 0 0  1.44375 0.41 0  1.85625 0.41 0  2.13125 0.41 0  0.7562500000000001 0 0  0.89375 0.41 0  0.4812500000000001 0 0  0.34375 0.41 0  0.4812500000000001 0.41 0  0.20625 0.41 0  0.06875000000000001 0 0  1.16875 0 0  0.61875 0 0  0.61875 0.41 0  1.03125 0.41 0  1.71875 0 0  1.99375 0 0  1.99375 0.41 0  1.340625 0.3489494290853124 0  1.134375 0.3489494290853123 0  1.700180620188976 0.3438659752031281 0  2.135782184673599 0.07126652247502523 0  1.668441847249787 0.2129203728327609 0  1.295782514339747 0.2378437748815763 0  0.8233075729931248 0.06842334294821524 0  1.409375 0.3520314716057996 0  0.403505597322782 0.182067236678212 0  0.378125 0.05794951541303489 0  0.3043468223249023 0.1518321115979534 0  2.129248544730567 0.1906135162504124 0  2.060771381434487 0.1989445750470348 0  2.013252586573865 0.1496169464686054 0  1.942766402200229 0.1734448904596831 0  1.895522487186454 0.06076163953489683 0  2.069553871656643 0.06605731020975725 0  1.274680914880868 0.3520219391081363 0  1.614713220494657 0.09473434380863296 0  0.7899021319497519 0.3149123934144827 0  0.69518737419149 0.0634051089053758 0  0.2971740475496061 0.2592172353407536 0  1.72990325744076 0.2380068107952482 0  1.356580098625191 0.2120393231351682 0  2.034370752044885 0.2668681600792073 0  1.51768709249349 0.3426260931494756 0  1.561883724969884 0.1650446847858835 0  1.197344062229598 0.2523725417393646 0  1.804085235518364 0.3468178408964637 0  1.817887819205233 0.2589243285818559 0  1.905897727272727 0.3485060975609756 0  0.6719798073392919 0.2688965171178177 0  0 0.05125 0  0.653125 0.35875 0  0.6396896119294488 0.1627615407790282 0  0.4274150154087412 0.1242548552168279 0  1.192836486056382 0.3562350748565544 0  0.8279124365364005 0.183856489168822 0  1.097485222388854 0.2083571153401724 0  1.28257088594801 0.2944411014911587 0  1.474860187679412 0.2504218616229368 0  1.406767003493824 0.2829282258560709 0  0.446875 0.04619219810344041 0  0.515625 0.04585361801037557 0  0.592043440706648 0.05125 0  1.845656689180403 0.1998310418452388 0  2.144958525570388 0.2909790873294231 0  0.6171090763650112 0.2492366900333857 0  2.2 0.15375 0  0.5145586920831158 0.3648371739579888 0  1.57794966442982 0.3540357145964566 0  0.721875 0.3633107922168974 0  0.0496154796471391 0.333125 0  0.5843750000000001 0.3662560860076676 0  0.5810878747760798 0.1474002776121195 0  1.508991196088596 0.1421783375065625 0  0.8840670607017558 0.2640994375393898 0  0.09776612425612034 0.2204896805326566 0  1.50436820029908 0.06143401634903343 0  1.223857000523521 0.0823554862453532 0  1.153316824384777 0.1289850171317837 0  2.148922302309752 0.1258841779285271 0  0.309375 0.04312325590431198 0  1.621993280276081 0.2841214267927899 0  1.550118654119087 0.2461998729100966 0  1.327182649291491 0.1216967252533594 0  1.051977450479407 0.1221382572915816 0  1.753125 0.04556020050186112 0  1.271875 0.04556020050186116 0  0.9816084133102366 0.05126138213476004 0  1.039051841454368 0.0572224914831029 0  0.9719230514536006 0.3480477870845102 0  1.94956388244759 0.1180512551534177 0  1.949997712993411 0.04965831614304109 0  1.771961817615021 0.1530278789497521 0  1.909246823951428 0.2812757146784527 0  0.2459536687882397 0.04668633953831142 0  1.948575539857022 0.2445328248721197 0  1.697271520964565 0.1233917627620729 0  0.7964897648514618 0.1211426571931604 0  1.065625 0.3689344961371042 0  1.085849084308977 0.3170853572226867 0  0.4702981435440001 0.260434880697798 0  1.577403511714593 0.05463601888079143 0  0.05622663515370135 0.05493816910862376 0  0.3267207591099919 0.3566194660323104 0  0.9003051618565143 0.3564049499960621 0  1.751571320346033 0.3651102912045228 0  0.1583785085108421 0.2994699345738728 0  0.1455283439499995 0.3542795598723423 0  2.2 0.35875 0  0.2347662494194072 0.298325008655211 0  0.1527284455616188 0.1065771775690181 0  0.1382139529076665 0.05427454456341477 0  0.8749341636311069 0.05110114999892954 0  0.643661668713109 0.05693499781019222 0  1.466879772203159 0.3611261772912453 0  1.990280163552011 0.3564754268533217 0  1.17471064520912 0.2990917256188288 0  0.5202693090594349 0.206382495511728 0  0 0.25625 0  2.2 0.25625 0  2.2 0.05125 0  0 0.15375 0  1.853978576207987 0.35875 0  0.9787513713939683 0.1487523696999336 0  0.240625 0.3722153812029779 0  1.515638456102889 0.2882700110184686 0  0.09048297387599738 0.3637717362208066 0  2.150453692751374 0.2387066338105111 0  1.323782677156475 0.04897634338873398 0  0.8074131292871642 0.3624701995505916 0  1.409375 0.03715320121951221 0  1.406484531114799 0.1087852750766809 0  1.134375 0.03715320121951218 0  1.627401732573545 0.04552157221025036 0  0.1170173172005315 0.1427610859166811 0  2.045405893604797 0.1105340662939892 0  1.255408269734577 0.1577307500159216 0  2.028125 0.03707597992059326 0  0.4743610090857199 0.1421513964721819 0  0.9354010469015898 0.250631300585664 0  0.04420832937638274 0.128125 0  0.8922386349349938 0.0992956419364831 0  0.1197849154434487 0.2663398672460083 0  1.248258025468107 0.2565907092181813 0  0.3746885856929528 0.370723531618974 0  1.203125 0.0366132337404304 0  0.5724622277005015 0.2751253816079333 0  0.3365425205162783 0.08395777655057959 0  2.072662025974815 0.2975086504196739 0  0.4581080832182547 0.3648371739579888 0  0.3874522734668214 0.2295447548840689 0  0.7827853612484443 0.04106550386289586 0  1.887722846421017 0.1760882698830035 0  1.472640588990488 0.1118278026240017 0  1.865937103925594 0.2604137786483804 0  1.463913572748262 0.2030442564990043 0  1.376426316059077 0.3186741374914345 0  0.6641993820150034 0.3141688596240831 0  0.2943117490824315 0.2130987422685822 0  0.3478153998082709 0.1666571081082676 0  0.3427990510599805 0.2575950027870776 0  0.7997118993855807 0.2216171933356366 0  
[...]
<PointData  Scalars="f_10-2"> 
<DataArray  type="Float64"  Name="f_10-2"  format="ascii">3.8294411860013880e-07  5.0012912750315099e-07  3.9598402985751718e-06  3.7470607669379279e-06  2.2594798120940844e-06  2.7680183855198441e-06  2.1395886260819532e-06  1.1721902218324360e-06  7.2354789649753141e-07  5.4523495569587404e-07  4.9368666041672764e-07  5.6035882266657743e-07  7.7165938368205899e-07  1.2532377027147847e-06  3.0480840709616256e-06  2.7963450465810870e-06  4.0320650433825614e-07  2.0255253507135022e-06  2.0268162097172684e-06  1.8828641942345398e-06  1.7455302960134990e-06  3.5093761424903307e-06  3.7800917367987141e-06  2.3145642450909561e-06  2.4572197391827153e-06  3.5009224047812136e-06  3.2165397579390895e-06  3.9213799845197772e-06  3.6751347619681603e-06  4.8816428128288970e-06  4.7635660826363826e-06  4.4215672847476104e-06  4.8298642834868579e-06  4.9303607385655960e-06  4.5280596614447897e-06  3.5609266225575428e-06  4.6320144059173574e-06  3.9537191247141524e-06  3.7233050411888100e-06  4.1018742996676980e-06  2.0003182956212840e-06  1.9823233410816522e-06  3.6049580371608426e-06  4.7007665504066224e-06  3.6628509290575333e-06  3.8639612194592873e-06  3.3792641111595153e-06  4.0796505664681692e-06  2.5524968868592138e-06  2.7592964757397025e-06  2.1222135516445776e-06  2.1824535322369421e-06  1.2257507157428553e-06  9.4506921386861215e-07  3.3015817476364248e-06  4.6117566610986351e-06  3.0236886203706457e-06  4.6745773361061985e-06  4.1776719829224266e-06  4.3741803208988453e-06  4.0403189156930510e-06  4.3185932343403652e-06  2.0532204075564936e-06  4.4833436176865194e-06  4.4173788707972825e-06  4.1296393515068979e-06  2.7266417526212387e-06  2.8507477928255584e-06  1.9969088375875034e-06  3.7199970649012142e-07  4.2834076600134637e-07  4.4239868698130212e-06  2.2363651054416182e-06  4.0644447337621297e-06  2.2531562741994681e-06  3.0468666771542152e-06  4.2020304350624629e-06  4.0182158702742897e-06  4.1641841113245402e-06  2.9291194767046399e-06  3.2766453710141768e-06  3.4233457171366959e-06  4.0937473123551346e-06  4.3223707096648800e-06  4.1358636776351010e-06  4.2614913453191807e-06  3.8390149594843967e-06  4.2863038395965577e-06  3.8093427820643157e-06  3.9469697706723713e-06  3.6432887547296634e-06  4.6642110635949629e-06  8.4243702509783604e-07  4.2469309636746030e-06  2.8261862029987860e-06  4.4614677659145375e-06  4.6673522171015095e-06  1.7433822924752723e-06  4.8379518588470920e-06  1.7038015931803632e-06  8.6195373602821219e-07  3.9578562316557390e-06  3.9144927570924166e-06  3.1259007872826879e-06  2.6070323958848285e-06  4.8223484723293434e-06  1.6608287132552126e-06  4.1317912502828152e-06  3.5628736418906863e-06  2.9132367240242160e-06  3.9652545642408452e-06  1.9750892856250751e-06  2.4827433129602122e-06  1.5965054949641182e-06  4.2349588071306780e-06  4.1606250786299059e-07  3.2060303020733974e-06  3.9514160183424726e-07  3.3602842370525530e-06  4.7493710071535156e-06  3.8817669081476612e-06  3.4003638932685309e-06  2.8378903862484945e-06  4.7658056781812107e-06  4.7589641313751883e-06  4.9225737905369944e-06  3.5309070641447348e-06  2.9132703740644952e-06  4.8621984669390800e-06  4.0860853914434190e-06  1.9236891212427615e-06  4.5260090861825742e-06  4.7737307440812638e-06  2.2044221091305185e-06  3.7284724405214368e-06  4.2703021357330217e-06  3.5680064559002416e-06  2.0823050560903370e-06  4.1506832874865213e-06  5.0281105163468818e-07  3.6934624917364621e-07  3.0593243549135624e-06  2.3767905996628513e-06  2.4467844694719612e-06  3.4477606234037546e-06  3.8003658269182061e-06  4.6013519841570552e-06  3.8959119301938004e-06  3.5824529883281653e-06  3.3043400773676914e-06  3.6474378086195812e-06  3.7383439589035778e-06  2.3086218197688207e-06  2.4241490068327142e-06  2.0038585391620256e-06  1.9104442435029703e-06  2.0071756685715798e-06  1.4257354178618632e-06  6.8679833652059993e-07  3.1848019419732575e-06  2.0854942444024889e-06  2.0636020177270525e-06  2.6701861380201143e-06  3.8245170683209671e-06  3.9369553527249945e-06  3.7049095841057893e-06  3.4433232437932682e-06  3.1684927167906168e-06  3.7912478262676602e-06  4.1293681947115698e-06  4.8045969772988003e-06  4.7621644909380209e-06  2.8911940239902459e-06  3.4977922072580439e-06  3.0496865591464844e-06  1.9778695053970437e-06  1.9368584438598712e-06  4.5697909502263055e-06  4.6126296267487689e-06  4.5444976592963408e-06  4.6560000700821440e-06  4.0698863260667991e-06  4.1097931971960862e-06  3.3372424188751421e-06  4.2340393076589755e-06  3.0322305354655398e-06  2.5148595225683949e-06  1.9459229894582606e-06  4.6780545420645488e-06  4.9071662146994280e-06  4.3927863169019626e-06  3.6800359603094723e-06  4.7896116498463401e-06  4.5935639463272341e-06  3.8193641751940972e-06  4.5185821267410640e-06  3.8465693304535947e-06  3.5681253259591467e-06  4.6309759476345432e-07  2.2371657177142249e-06  4.0037860617085963e-06  2.3062108822514243e-06  3.1811122714042855e-06  4.6652476298613001e-06  4.9097670739234263e-06  4.0770221851048902e-06  4.6547984342192112e-06  4.2959135523114530e-06  2.0187844749955757e-06  2.0699935938827676e-06  2.1890029518608704e-06  4.7358339862432118e-06  4.2107729346156641e-06  3.7392769479182949e-06  4.4698544451855417e-06  2.0762358774355504e-06  3.6353798244130078e-06  2.3054247665817531e-06  4.0012629122704037e-07  2.1218245478698215e-06  3.5133117125413045e-06  4.6489023067799591e-06  4.1337079535277001e-06  4.2540335669020753e-07  3.8851133718561781e-06  3.8194635940403148e-06  4.3973672053971780e-06  4.3839847270386925e-06  1.9130601946580990e-06  4.3280877878656253e-06  4.6801228701433837e-06  4.4086767260633304e-06  4.2030370655515619e-06  3.9427834646442261e-06  3.5008272230196729e-06  3.0350337941241332e-06  3.2191957000531891e-06  2.9055639144980553e-06  4.4081875250309734e-06  4.0262188561197835e-06  4.6630430030718084e-06  4.3328778351394977e-06  1.7990914720951638e-06  4.5521486158919925e-06  4.4857678920492561e-06  3.7432962570481637e-06  2.8681431454753945e-06  3.5272882859721857e-06  2.8904198420574785e-06  3.8933618164183236e-06  5.4328570103409367e-07  1.9511064644322074e-06  2.6772075779356972e-06  3.6850934745401490e-06  1.3525308772428177e-06  1.2655210103543640e-06  3.8439269201264967e-06  1.5648745695742864e-06  1.1792834229845143e-06  1.3374313492014465e-06  2.7955736084153658e-06  2.3264259394118211e-06  3.4843831728719183e-06  3.8259896566554468e-06  3.9148629171634609e-06  3.8253096254540174e-06  3.8993338173939690e-07  4.3809966163309481e-06  4.0469360583979711e-06  4.1503117366445912e-07  3.7716009293350048e-06  4.5083444630779191e-06  1.6930923544863857e-06  4.2647561796104674e-06  6.0929844939879806e-07  4.4726609934170721e-06  3.5965720693761057e-06  2.4539358728385084e-06  3.6315468898872412e-06  4.2959085158752107e-06  3.2171859611356236e-06  3.8732969834358057e-06  6.5318138714939616e-07  4.3426798312820282e-06  4.7642578885594000e-06  3.9974938326010435e-06  2.8491476712091411e-06  4.4169792978395469e-06  4.3329950158518164e-07  3.5539597973992921e-06  7.7310325006693963e-07  4.5610017797145611e-06  1.9775176626400397e-06  3.3385927727722409e-06  3.1052891094122682e-06  1.8892106902084039e-06  4.1877750963058105e-06  2.0475596016863093e-06  2.8788628477838609e-06  2.4969316296362992e-06  4.6937137662272427e-06  4.3540996204568382e-06  4.4923594835904472e-06  4.9026686177217539e-06  3.8217372765107561e-06  2.7442120510051755e-06  2.7238268801898880e-06  2.3982173187410680e-06  2.1915645458712051e-06  4.5668975871119778e-06  4.3424655642046063e-06  4.6059463527511164e-06  4.0058083971099005e-06  4.3217231314196335e-06  3.6704056964262667e-06  4.7324873541588310e-06  4.0379263153982399e-06  4.5307777954464227e-06  4.9188243240268213e-06  1.4979737552839619e-06  3.7143264678133068e-06  4.6290545868951153e-06  4.2776831483726936e-06  4.1081582539765248e-06  4.1647130872510926e-06  4.0183495990112853e-07  4.4518736006744547e-06  3.9669081410544183e-06  3.7318771870341970e-06  3.8135734408018810e-06  8.7396941646110434e-07  2.3934570801957902e-06  3.4796269708766057e-06  4.4011366320096621e-06  4.1705408735951106e-06  1.4733970544585386e-06  4.6883361775760289e-06  4.9055154596851998e-06  3.6235003256457241e-06  4.8397369390140403e-06  3.4164092495894003e-06  2.3657161793390542e-06  3.8026757246892778e-06  3.9131580201114956e-06  2.6141506903859484e-06  2.7774556967126227e-06  3.9992293513596333e-06  3.7865359765905930e-06  4.0689281227129782e-07  2.8687435457300666e-06  2.3443065535894012e-06  4.7585988052403052e-06  4.5455951522818125e-06  4.6913067960940155e-06  3.9548459657630230e-06  4.2665572682408364e-06  3.6955058418095733e-06  3.7589811703390127e-06  3.2703497345307547e-06  1.2489149879355575e-06  3.6246837424514312e-06  3.0988814766855129e-06  3.9816535479492839e-06  3.6148209232701911e-06  3.4991085590918949e-06  2.0358841226857186e-06  1.2051898545743677e-06  4.5362769816474816e-06  2.4928820902523378e-06  4.8669703921420926e-06  3.1485783824010556e-06  4.5638540112339520e-06  3.7087135852015369e-06  1.6092620210290170e-06  4.8450625098798545e-06  3.1814011360781109e-06  4.5752207443057777e-06  3.7911239158867415e-06  2.1535846066739637e-06  2.2511893283507271e-06  4.5505488849986736e-06  3.8529025595709541e-06  4.5162646658586359e-06  4.7358345353392249e-06  4.8140683072214438e-06  4.3852027781056118e-07  4.5157716731477565e-06  3.8679160780393827e-06  4.0146015586148760e-06  3.5523945076442157e-06  3.6621165942079579e-06  3.9735971813242715e-06  3.9105226520474530e-06  4.2005347055186534e-06  4.2538511862474334e-06  4.1972093200537927e-06  3.8580727026642134e-06  4.3586632994610233e-06  5.3892293769234273e-07  3.1507153786260622e-06  1.9109626794452397e-06  3.8621499710170625e-07  3.7767946320806346e-06  4.6907968844319167e-06  4.1793614676152553e-06  3.4623632098079381e-06  4.7750544156438379e-07  2.0831576243247281e-06  1.4909185299741370e-06  4.1397878457562137e-06  3.0502820477451629e-06  2.6274536594461733e-06  2.4217981627686199e-06  4.8540999163725775e-06  4.1133937395213203e-07  4.4324433431298462e-06  3.3411712097221849e-06  4.1510885546709506e-06  4.4248340282936991e-06  1.8060984394719239e-06  1.3911546248107277e-06  4.6509338820132769e-06  1.8422625894291717e-06  4.0630619286404087e-06  3.5693084138455589e-06  2.6751639967454390e-06  3.8247595602836011e-06  1.8128988781633323e-06  2.6374909290441903e-06  3.7548117218222734e-06  2.4869297036146415e-06  3.7930473322183150e-07  3.7398625624109752e-06  4.7870557596463459e-06  4.9343670511336802e-06  4.5721047834002645e-06  4.5583290868049412e-06  4.3104249473985445e-06  3.5664049653915282e-06  4.0877419543241936e-06  4.7217909174855492e-06  4.7683057980305175e-06  4.5622915452036069e-06  5.4546383385476794e-07  2.0347597156576754e-06  4.0645510530882136e-06  4.3696827578321903e-06  5.3786268842263443e-07  1.8581408887551827e-06  3.9963948196985086e-06  3.9874058708021585e-06  2.3206389202921972e-06  1.0662719079579446e-06  1.6280060763613211e-06  4.4807674623100497e-07  3.4605630588166278e-06  3.5580117011133072e-06  4.8358905372089813e-06  3.4595424769211644e-06  3.4888199473203919e-06  3.8803745020127811e-06  2.6223727739490376e-06  4.5221962906612333e-06  4.5697090776799729e-06  3.9580561317014513e-06  2.4537227209231360e-06  4.2179312827191662e-06  4.5352196778880314e-06  4.5437748988167251e-06  3.9347455490964260e-06  3.9584691007599059e-06  4.8797659157083961e-06  4.3748045465944971e-06  4.8319574172944139e-06  2.2279721807956896e-06  3.9055902051342991e-06  3.0782949747618456e-06  2.8213855452272888e-06  2.7281722114461743e-06  2.5302142769249685e-06  2.5855104609554137e-06  4.2242529261617673e-06  4.2886729969186089e-06  2.9442717651132325e-06  4.6643666348518946e-06  3.7797003532109852e-06  3.6415141396422076e-06  4.8919696980189006e-06  4.7668520348273160e-06  4.5002426286020860e-06  4.7267786697545808e-06  3.7468406052259114e-06  1.9502810659373106e-06  2.0095569348465904e-06  3.6166199236201668e-06  2.6246523371441115e-06  3.6473311194316498e-06  4.3563118799843274e-06  2.9910347008740901e-06  2.8562668866791045e-06  3.2279958704709176e-06  3.1657466903847463e-06  3.3237974008749509e-06  3.6633673746599136e-06  4.9010443858398998e-06  4.4855186256790144e-06  2.9654490622953306e-06  2.2590023963306966e-06  2.1288708447328417e-06  3.0243506077118616e-06  2.3924685244620778e-06  2.0009104251724684e-06  1.9931715437086414e-06  2.2478389292059937e-06  2.6853419715506280e-06  2.3835416951151980e-06  2.3099771683942194e-06  4.6795179360128737e-06  3.3840045524256685e-06  4.6027923687565102e-06  2.2562691276352423e-06  3.0123035485294567e-06  2.8366095714392672e-06  3.8654740639928091e-06  3.5335197371144435e-06  4.6393079879795835e-06  4.6233919475519777e-06  4.3468777517904928e-06  3.0710158231036953e-06  2.8902949197363499e-06  3.2637786967005253e-06  2.0227722289278793e-06  3.4540765862751778e-06  2.9854235329506633e-06  3.9588955198172774e-06  3.9541524110111618e-06  3.1191757569739260e-06  3.5469200853213374e-06  3.3431553134971410e-06  3.5853877984729646e-06  2.7347782846699015e-06  3.8491638116589167e-06  2.1627745591002053e-06  3.2590051564741183e-06  2.2442621974352964e-06  3.7457972468118791e-06  2.6891384129360847e-06  1.9547055595299399e-06  2.0018442783679252e-06  1.9973410044493510e-06  9.3991769326444952e-07  1.6091454088653305e-06  1.7929204637062508e-06  6.8885407040895971e-07  2.1273705849960546e-06  2.3803164735496149e-06  1.9411375148686758e-06  2.0396263093309285e-06  2.0148893049413409e-06  2.0487396261673385e-06  2.0089067026513377e-06  2.0841560131832440e-06  2.8437669756810657e-06  3.2402048017160400e-06  3.7541201890565255e-06  3.9287670544786063e-06  3.3521655872735591e-06  3.9456623954198525e-06  3.6880397000661475e-06  3.6238623921429395e-06  4.3741534222582343e-06  2.9015137803833630e-06  4.4539726884487132e-06  4.7526231770208198e-06  1.9831888977193103e-06  4.7167513515912668e-06  4.3853154341364647e-06  3.4195475439752757e-06  3.9753870303476823e-06  3.9341945690845267e-06  3.9502617362686020e-06  8.4810174584677297e-07  3.6669870094115754e-06  3.3316193134436522e-06  4.5687581236601301e-06  4.0800328015374896e-06  4.8013210211817326e-06  1.6557233787622362e-06  4.1291081648741028e-06  4.3734086664759989e-06  4.6468286227631411e-06  4.9236135737192425e-06  4.1096995644689449e-06  3.4092775081920273e-06  3.1410349748300284e-06  4.0424512073165688e-06  2.6454533968337852e-06  3.9698815110009439e-07  1.7681197515452764e-06  3.7823405637015026e-06  2.1183154446480910e-06  3.9930064190948688e-06  4.2502405759532169e-06  3.6920825664378316e-06  2.1782633560195868e-06  4.8918525740272048e-06  4.9314482254658438e-07  3.4823705854092675e-06  4.6907085258086185e-06  4.6153957843974658e-06  8.5461243338405272e-07  3.9812617269732991e-06  1.5674850775960041e-06  3.1356801284316842e-06  3.4834860995956347e-06  4.5425313098103845e-06  4.1800370783714433e-06  3.6585732106654084e-06  4.8838535784938269e-06  3.9332328203591910e-06  4.1321444518502417e-06  4.6482747455466312e-06  4.1828523675121059e-06  4.3388232963960198e-06  2.1600744817975518e-06  4.7392624335049410e-06  4.5566357605869547e-06  3.6007487470327505e-06  2.9882878603959941e-06  4.1634363729829005e-06  4.0892314535050106e-06  7.4573066955904057e-07  3.7033535549695345e-06  2.3592104177958050e-06  3.4728566026518073e-06  2.3377306102315559e-06  1.6549938538538421e-06  1.4005514442946544e-06  3.4771199220714555e-06  3.5104147418003651e-06  4.3024940174839697e-06  4.8577307320425221e-06  1.8486014042868822e-06  4.0684510788672922e-06  4.0617026158558271e-06  2.2606663456970700e-06  4.1211713343597578e-06  3.6848747321223580e-06  2.9151932637864111e-06  3.9160021165705528e-06  4.8730776781954237e-06  4.1392105144420334e-06  3.7451636597748896e-06  4.6951272851674287e-06  3.5319741803639876e-06  3.6195949362686745e-06  5.2757687691242909e-07  4.4982423832362634e-06  2.1440430091622074e-06  4.8379621047531943e-06  4.3116634911670158e-06  4.7777119140049338e-06  4.8063717649651431e-06  3.9412360153642584e-06  4.3779898373074202e-06  4.3251852220084903e-06  4.5887512520654568e-06  3.6894998418786160e-06  3.7247443583455131e-06  4.8769420862781485e-07  5.0328415222151576e-07  4.6452749938876334e-06  4.2493330378560822e-06  3.6616039611264824e-06  6.7710493058760363e-07  2.1366792103061880e-06  3.6955853800181694e-06  1.7255516419388749e-06  1.5920925654951844e-06  2.4560688926284111e-06  4.4077453026938711e-06  2.9430407105032724e-06  3.2308317978601265e-06  1.9733939135771436e-06  3.7723633612089550e-06  3.6610442312315341e-06  2.4966377659187775e-06  3.9440091781880391e-07  1.9860633488790414e-06  1.9811833079543625e-06  4.1126886146871640e-06  3.1048995642413415e-06  3.9708883207066723e-06  4.7448595472071927e-06  4.5161098883667400e-06  4.2895159118956162e-06  4.4784662615263741e-06  4.1069102697318512e-06  2.3926104592151151e-06  4.8734025104851930e-06  4.9201493751651195e-06  4.5126013282079241e-06  4.4690993005474600e-06  4.3306382163439964e-06  4.0918447139456778e-06  4.4755732734385792e-06  4.3710159085944645e-06  3.3246928696511070e-06  9.4792667081570378e-07  1.2475891692849905e-06  4.5255679089843247e-06  3.6729168473016994e-06  4.8773211533064310e-06  4.8035229813779140e-06  4.3461223993331180e-06  4.8095550929300581e-06  3.6312248697204832e-06  3.9286149168025157e-06  2.4721044240884505e-06  2.6413021859410496e-06  3.0414254322418344e-06  4.6109076990243482e-06  4.7235765322534627e-06  4.3693416980527059e-06  4.6072527426297815e-06  2.6280000507637887e-06  3.2273487244578028e-06  4.7168548674968742e-06  3.9327869304742458e-06  3.7501681181077780e-06  3.1588040719080382e-06  2.5898659036105253e-06  4.3762968083744642e-06  1.6452833925683960e-06  4.1403233239804770e-06  4.4888950335826456e-06  2.5095832188105326e-06  3.1366950270346092e-06  2.2136449725551470e-06  4.0327403814359545e-06  4.0865208078973623e-06  3.4229451124987610e-06  2.4054500652684960e-06  2.6660519307578574e-06  3.7376331705668542e-06  2.9869718392611656e-06  4.5012233504885758e-06  2.1710660330494136e-06  4.6898339220577672e-06  4.0785875712478970e-06  2.0810443079966016e-06  3.9933842097736904e-06  3.4491637128263552e-06  2.1016584897319146e-06  1.1613992839179392e-06  3.6171151241028678e-06  4.0436874040162770e-06  4.3755654233154805e-06  4.1255281554987985e-06  2.0352569415319293e-06  4.6435926375424426e-06  4.0022732823924372e-06  4.6194647765818122e-06  3.4508340407064389e-06  3.8590491598298254e-06  3.8848376677907019e-06  4.4073239323684053e-06  4.4978086804487044e-06  4.4645325652911283e-06  4.0275587103380319e-06  1.8487192665739413e-06  4.9294005213441726e-06  3.3707617640000434e-06  3.5648993809495437e-06  3.1729496792353405e-06  3.5832826370917439e-06  2.0345347229387773e-06  2.1079402892728226e-06  3.7622942128068905e-06  7.5926832381532168e-07  1.7287286509619184e-06  6.4743786399890602e-07  1.0917638133156614e-06  1.8509174272338844e-06  3.4578220330085613e-06  1.8849057897589132e-06  4.2296260109448181e-06  4.5240708676903089e-06  4.0496632460718462e-07  4.0095593309163401e-07  3.8777322132698291e-06  3.6617647303474466e-06  1.0376927472985009e-06  4.3808927985051562e-06  3.8412178284368222e-07  2.8473150405318437e-06  3.6719953767069569e-07  5.5691204549699646e-07  9.7018540477832125e-07  1.2048952248588117e-06  4.5570370422124105e-06  4.5400558812254432e-06  2.6457491453549155e-06  4.8032799134143589e-06  4.4593238801743397e-06  4.7557915522168761e-06  3.7623798906279393e-06  3.6937113680155677e-06  4.7685464186923848e-06  4.7542532008207300e-06  2.0519142217556860e-06  3.7276240254205488e-06  4.0538840548397623e-06  3.9488837038603037e-06  2.0770901526359954e-06  2.6993153308944647e-06  3.7695201010782921e-06  4.6141635597103950e-06  4.5161365193932917e-06  2.9873019916763875e-06  4.1234033774227483e-06  4.5140401950673651e-06  2.0296657212915300e-06  4.6070012968749382e-06  1.9503568018155321e-06  3.7885728695433629e-06  3.9433370252328781e-06  2.5120765067085932e-06  4.7352172042507676e-06  4.1843176608766