<?xml version="1.0"?>
<VTKFile type="UnstructuredGrid"  version="0.1"  >
<UnstructuredGrid>
<Piece  NumberOfPoints="2446" NumberOfCells="4585">
<Points>
<DataArray  type="Float64"  NumberOfComponents="3"  format="ascii">0 0.41 0  0 0 0  2.2 0 0  2.2 0.41 0  0.2404508497187474 0.2293892626146237 0  0.25 0.2 0  0.2404508497187474 0.1706107373853764 0  0.2154508497187474 0.1524471741852423 0  0.1845491502812526 0.1524471741852423 0  0.1595491502812526 0.1706107373853764 0  0.15 0.2 0  0.1595491502812526 0.2293892626146237 0  0.1845491502812527 0.2475528258147577 0  0.2154508497187474 0.2475528258147577 0  1.1 0 0  1.1 0.41 0  0 0.205 0  0.55 0 0  0.55 0.41 0  0.275 0 0  0.275 0.41 0  1.65 0.41 0  1.65 0 0  0.8250000000000001 0.41 0  0.8250000000000001 0 0  1.375 0 0  1.375 0.41 0  1.925 0 0  1.925 0.41 0  1.5125 0.205 0  1.7875 0.205 0  0.6875 0.205 0  0.9625000000000001 0.205 0  1.2375 0.205 0  2.2 0.205 0  0.4687002074688797 0.2068568464730291 0  1.99375 0.2152743902439024 0  2.0625 0 0  2.0625 0.41 0  2.2 0.3075 0  0.4125 0 0  0.4125 0.41 0  1.7875 0.41 0  1.375 0.1486128048780488 0  1.5125 0 0  1.7875 0 0  1.5125 0.41 0  0.8250000000000001 0.2613871951219511 0  0.9625000000000001 0.41 0  0.9625000000000001 0 0  0.6875 0.41 0  0.6875 0 0  0.1375 0 0  0.1375 0.41 0  1.2375 0 0  1.1 0.1486128048780487 0  1.2375 0.41 0  1.65 0.1486128048780487 0  1.126715909090909 0.2793064024390244 0  1.676715909090909 0.2793064024390244 0  0.8517159090909092 0.1306935975609756 0  1.348284090909091 0.2793064024390244 0  0.34375 0.3032389320646208 0  1.894702181800738 0.1282910975492754 0  2.092797818199262 0.1282910975492754 0  1.85625 0.3075 0  0.61875 0.3075 0  0.61875 0.1025 0  0.3648540804333487 0.1240075933101478 0  0 0.3075 0  0 0.1025 0  2.099172119769978 0.25625 0  0.48125 0.09238439620688085 0  0.5781001037344399 0.2059284232365146 0  0.48125 0.3196743479159776 0  0.7265881057911006 0.3055240343720796 0  1.99375 0.08395950269330846 0  1.459960956013612 0.3075 0  1.569025960719943 0.2986889805672169 0  0.75625 0.08213100772579164 0  1.03125 0.3278689922742084 0  0.923871252904788 0.3078247185783941 0  1.959375 0.3126371951219512 0  1.749222215368287 0.1025 0  1.275777784631713 0.1025 0  2.2 0.1025 0  1.225938124459196 0.3075 0  1.550777784631713 0.1025 0  1.000777784631713 0.1025 0  1.44375 0.07430640243902442 0  1.16875 0.07430640243902437 0  1.899250267340833 0.2229966846119207 0  0.1020898364287272 0.3140258291809757 0  1.766482954545455 0.2934032012195123 0  0.3405058858996321 0.2119987970531874 0  0.7710785630958338 0.1710968191298857 0  1.046078563095834 0.2389031808701144 0  0.2 0.3400647632937836 0  1.421109702350723 0.2261157654379721 0  0.2800464974185557 0.08982544815605742 0  0.098916018031319 0.09171660955420841 0  2.13125 0 0  2.118919042110979 0.3422084711244843 0  1.30625 0.41 0  0.89375 0 0  1.597888256393107 0.2173787389261347 0  0.20625 0 0  1.829299675393195 0.07400700849299596 0  1.71875 0.41 0  1.16875 0.41 0  2.038220665644273 0.332420740103091 0  0.34375 0 0  0.417496017710808 0.2696595573092803 0  0.2 0.07687845740457822 0  0.9295982307099278 0.1343158415898188 0  0.07390688010811153 0.1697064032433452 0  0.5238366813727013 0.2578302467013575 0  0.05452951551825875 0.25625 0  0.5229630068078351 0.1548816096928243 0  1.452769549894695 0.1548122580621249 0  1.369219062229598 0.07430640243902442 0  1.30625 0 0  0.8504409521244898 0.3356935975609756 0  0.8821881244591965 0.205 0  1.720943423819132 0.1714577452753128 0  1.157188124459196 0.205 0  1.094219062229598 0.07430640243902437 0  1.03125 0 0  1.304056576180868 0.1714577452753128 0  1.67579304192913 0.07430640243902437 0  0.2751941921308361 0.3346083473122598 0  1.209670467133757 0.1362100266964769 0  1.025335513626278 0.1700681449722324 0  0.7562500000000001 0.41 0  1.58125 0 0  0.7567170593862014 0.2409196493502535 0  0.6926714215682891 0.1272249611432207 0  0.4139715849905988 0.3397932387114203 0  0.9840787304190477 0.2717749043358119 0  0.06875000000000001 0.41 0  0 0.35875 0  0.9281250000000001 0.06276726142697993 0  0.5507396469029935 0.3219409231578227 0  0.5504468037989405 0.09136885600634273 0  1.58125 0.41 0  1.631724228912893 0.3381867502687533 0  1.825608881788174 0.14499488549201 0  1.85625 0 0  1.44375 0 0  1.44375 0.41 0  1.85625 0.41 0  2.13125 0.41 0  0.7562500000000001 0 0  0.89375 0.41 0  0.4812500000000001 0 0  0.34375 0.41 0  0.4812500000000001 0.41 0  0.20625 0.41 0  0.06875000000000001 0 0  1.16875 0 0  0.61875 0 0  0.61875 0.41 0  1.03125 0.41 0  1.71875 0 0  1.99375 0 0  1.99375 0.41 0  1.340625 0.3489494290853124 0  1.134375 0.3489494290853123 0  1.700180620188976 0.3438659752031281 0  2.135782184673599 0.07126652247502523 0  1.668441847249787 0.2129203728327609 0  1.295782514339747 0.2378437748815763 0  0.8233075729931248 0.06842334294821524 0  1.409375 0.3520314716057996 0  0.403505597322782 0.182067236678212 0  0.378125 0.05794951541303489 0  0.3043468223249023 0.1518321115979534 0  2.129248544730567 0.1906135162504124 0  2.060771381434487 0.1989445750470348 0  2.013252586573865 0.1496169464686054 0  1.942766402200229 0.1734448904596831 0  1.895522487186454 0.06076163953489683 0  2.069553871656643 0.06605731020975725 0  1.274680914880868 0.3520219391081363 0  1.614713220494657 0.09473434380863296 0  0.7899021319497519 0.3149123934144827 0  0.69518737419149 0.0634051089053758 0  0.2971740475496061 0.2592172353407536 0  1.72990325744076 0.2380068107952482 0  1.356580098625191 0.2120393231351682 0  2.034370752044885 0.2668681600792073 0  1.51768709249349 0.3426260931494756 0  1.561883724969884 0.1650446847858835 0  1.197344062229598 0.2523725417393646 0  1.804085235518364 0.3468178408964637 0  1.817887819205233 0.2589243285818559 0  1.905897727272727 0.3485060975609756 0  0.6719798073392919 0.2688965171178177 0  0 0.05125 0  0.653125 0.35875 0  0.6396896119294488 0.1627615407790282 0  0.4274150154087412 0.1242548552168279 0  1.192836486056382 0.3562350748565544 0  0.8279124365364005 0.183856489168822 0  1.097485222388854 0.2083571153401724 0  1.28257088594801 0.2944411014911587 0  1.474860187679412 0.2504218616229368 0  1.406767003493824 0.2829282258560709 0  0.446875 0.04619219810344041 0  0.515625 0.04585361801037557 0  0.592043440706648 0.05125 0  1.845656689180403 0.1998310418452388 0  2.144958525570388 0.2909790873294231 0  0.6171090763650112 0.2492366900333857 0  2.2 0.15375 0  0.5145586920831158 0.3648371739579888 0  1.57794966442982 0.3540357145964566 0  0.721875 0.3633107922168974 0  0.0496154796471391 0.333125 0  0.5843750000000001 0.3662560860076676 0  0.5810878747760798 0.1474002776121195 0  1.508991196088596 0.1421783375065625 0  0.8840670607017558 0.2640994375393898 0  0.09776612425612034 0.2204896805326566 0  1.50436820029908 0.06143401634903343 0  1.223857000523521 0.0823554862453532 0  1.153316824384777 0.1289850171317837 0  2.148922302309752 0.1258841779285271 0  0.309375 0.04312325590431198 0  1.621993280276081 0.2841214267927899 0  1.550118654119087 0.2461998729100966 0  1.327182649291491 0.1216967252533594 0  1.051977450479407 0.1221382572915816 0  1.753125 0.04556020050186112 0  1.271875 0.04556020050186116 0  0.9816084133102366 0.05126138213476004 0  1.039051841454368 0.0572224914831029 0  0.9719230514536006 0.3480477870845102 0  1.94956388244759 0.1180512551534177 0  1.949997712993411 0.04965831614304109 0  1.771961817615021 0.1530278789497521 0  1.909246823951428 0.2812757146784527 0  0.2459536687882397 0.04668633953831142 0  1.948575539857022 0.2445328248721197 0  1.697271520964565 0.1233917627620729 0  0.7964897648514618 0.1211426571931604 0  1.065625 0.3689344961371042 0  1.085849084308977 0.3170853572226867 0  0.4702981435440001 0.260434880697798 0  1.577403511714593 0.05463601888079143 0  0.05622663515370135 0.05493816910862376 0  0.3267207591099919 0.3566194660323104 0  0.9003051618565143 0.3564049499960621 0  1.751571320346033 0.3651102912045228 0  0.1583785085108421 0.2994699345738728 0  0.1455283439499995 0.3542795598723423 0  2.2 0.35875 0  0.2347662494194072 0.298325008655211 0  0.1527284455616188 0.1065771775690181 0  0.1382139529076665 0.05427454456341477 0  0.8749341636311069 0.05110114999892954 0  0.643661668713109 0.05693499781019222 0  1.466879772203159 0.3611261772912453 0  1.990280163552011 0.3564754268533217 0  1.17471064520912 0.2990917256188288 0  0.5202693090594349 0.206382495511728 0  0 0.25625 0  2.2 0.25625 0  2.2 0.05125 0  0 0.15375 0  1.853978576207987 0.35875 0  0.9787513713939683 0.1487523696999336 0  0.240625 0.3722153812029779 0  1.515638456102889 0.2882700110184686 0  0.09048297387599738 0.3637717362208066 0  2.150453692751374 0.2387066338105111 0  1.323782677156475 0.04897634338873398 0  0.8074131292871642 0.3624701995505916 0  1.409375 0.03715320121951221 0  1.406484531114799 0.1087852750766809 0  1.134375 0.03715320121951218 0  1.627401732573545 0.04552157221025036 0  0.1170173172005315 0.1427610859166811 0  2.045405893604797 0.1105340662939892 0  1.255408269734577 0.1577307500159216 0  2.028125 0.03707597992059326 0  0.4743610090857199 0.1421513964721819 0  0.9354010469015898 0.250631300585664 0  0.04420832937638274 0.128125 0  0.8922386349349938 0.0992956419364831 0  0.1197849154434487 0.2663398672460083 0  1.248258025468107 0.2565907092181813 0  0.3746885856929528 0.370723531618974 0  1.203125 0.0366132337404304 0  0.5724622277005015 0.2751253816079333 0  0.3365425205162783 0.08395777655057959 0  2.072662025974815 0.2975086504196739 0  0.4581080832182547 0.3648371739579888 0  0.3874522734668214 0.2295447548840689 0  0.7827853612484443 0.04106550386289586 0  1.887722846421017 0.1760882698830035 0  1.472640588990488 0.1118278026240017 0  1.865937103925594 0.2604137786483804 0  1.463913572748262 0.2030442564990043 0  1.376426316059077 0.3186741374914345 0  0.6641993820150034 0.3141688596240831 0  0.2943117490824315 0.2130987422685822 0  0.3478153998082709 0.1666571081082676 0  0.3427990510599805 0.2575950027870776 0  0.7997118993855807 0.2216171933356366 0  
[...]
<PointData  Scalars="f_10-2"> 
<DataArray  type="Float64"  Name="f_10-2"  format="ascii">4.6344939992363345e-07  5.9327897130046096e-07  4.1797287893212670e-06  3.9762835205936294e-06  2.4548688644461586e-06  2.9727826518155712e-06  2.3203586672856055e-06  1.3103294160563024e-06  8.2888112404035693e-07  6.3342557667402178e-07  5.7720339285353538e-07  6.5066871355739657e-07  8.8399767541617213e-07  1.4046676766500160e-06  3.2895407385959954e-06  3.0627266400163460e-06  4.7902326186541725e-07  2.2905134477362013e-06  2.3210933501097207e-06  2.1415306367169718e-06  2.0087416294589589e-06  3.7547595558124655e-06  4.0096354798187939e-06  2.5948532543612167e-06  2.7080035869767724e-06  3.7358733632325446e-06  3.4715916472651165e-06  4.1459208051030445e-06  3.9118230342763376e-06  5.1303650032915337e-06  5.0059666662624777e-06  4.6773243790819510e-06  5.0875667254118534e-06  5.1845663328399303e-06  4.7606922182599776e-06  3.8028667133668918e-06  4.8698836917464740e-06  4.1758194338063724e-06  3.9559423910393013e-06  4.3344869309849337e-06  2.2703718016326527e-06  2.2752802293414528e-06  3.8458693102451150e-06  4.9469978139562128e-06  3.8950678012256248e-06  4.0909466148071029e-06  3.6293116017045910e-06  4.3474595329991504e-06  2.8254679590609908e-06  3.0048931912437403e-06  2.4101571662294024e-06  2.4397844099543893e-06  1.4089818117847563e-06  1.1035477478530759e-06  3.5396224606883918e-06  4.8622221838667556e-06  3.2841332125939186e-06  4.9154769536394509e-06  4.4407100430018709e-06  4.6217077052325974e-06  4.2913813215347552e-06  4.5754284505006531e-06  2.3177691254879272e-06  4.7172337786280798e-06  4.6471367822189095e-06  4.3717428290963325e-06  3.0092321931325299e-06  3.1028760608410715e-06  2.2200275727984149e-06  4.4745954972938925e-07  5.0920019671107474e-07  4.6599553797601226e-06  2.4885634841577881e-06  4.3157868006315171e-06  2.5404130945453559e-06  3.3255336875822658e-06  4.4299271123751532e-06  4.2722420861081220e-06  4.4148877254004976e-06  3.1817139871588394e-06  3.5460520113294208e-06  3.6952744909359181e-06  4.3327268960000798e-06  4.5567127578974792e-06  4.3792855104733338e-06  4.4870707702791815e-06  4.1005330550353688e-06  4.5245124364705406e-06  4.0576122588476887e-06  4.1845977845276652e-06  3.8865080683832053e-06  4.9047320392576400e-06  9.7630963376830439e-07  4.4918651407324085e-06  3.0492403728708925e-06  4.7143699627645838e-06  4.9282783370805930e-06  1.9873709991673104e-06  5.0902066721299692e-06  1.9190214016527966e-06  9.9208201060199559e-07  4.1786573028777004e-06  4.1478684699466250e-06  3.3835861035755565e-06  2.8550553486934763e-06  5.0699641608151432e-06  1.8947560367695915e-06  4.3620042463079755e-06  3.8060277734224152e-06  3.1765933505733206e-06  4.2013161019580448e-06  2.2431977448025572e-06  2.7468950260682072e-06  1.8045639985296426e-06  4.4858509887391296e-06  4.9322601574715720e-07  3.4726440846550252e-06  4.7098984228302332e-07  3.6011538455733864e-06  4.9947980908639563e-06  4.1208747624429164e-06  3.6367412503927918e-06  3.1154998594216586e-06  5.0237652408353077e-06  5.0004527731458442e-06  5.1780869782536690e-06  3.7757377306773028e-06  3.1567500862333986e-06  5.1119900887948193e-06  4.3192343368769037e-06  2.1868778625360526e-06  4.7737565103961776e-06  5.0270263152327386e-06  2.4885151375079760e-06  3.9593756607929973e-06  4.5345699254277591e-06  3.8183459058992605e-06  2.3705168794026955e-06  4.4167405074929843e-06  6.0034848818821095e-07  4.4686493437316124e-07  3.3077049460755910e-06  2.6643612236874218e-06  2.7005932996291959e-06  3.6954269775683741e-06  4.0485272121582591e-06  4.8382447624483185e-06  4.1216584354241542e-06  3.8159406291891180e-06  3.5568718537668910e-06  3.8862764611159372e-06  3.9689954643136598e-06  2.5624637203599201e-06  2.7006591089967555e-06  2.2722381488585390e-06  2.1944788704171918e-06  2.3025089624179935e-06  1.6482271031973978e-06  8.0360653327186952e-07  3.4245480093110792e-06  2.3465909738235412e-06  2.3551060350058031e-06  2.9397649965182608e-06  4.0527446925190077e-06  4.1601914430075437e-06  3.9396025210840906e-06  3.7011871887426678e-06  3.4343000430356564e-06  4.0370778737226677e-06  4.3535356520188474e-06  5.0502749565089973e-06  5.0180273019983265e-06  3.1425383278486772e-06  3.7531014140769550e-06  3.2750356847616709e-06  2.2364476032073938e-06  2.1277629912509156e-06  4.8032256413850885e-06  4.8481376257630604e-06  4.7777513961124679e-06  4.8926875077250131e-06  4.2977999308117813e-06  4.3348242701879589e-06  3.5975063662988619e-06  4.4702504149578343e-06  3.3101086318077632e-06  2.7703578139226683e-06  2.1578548886326654e-06  4.9233823026662208e-06  5.1597523966436026e-06  4.6304779450152016e-06  3.9318210768147839e-06  5.0338887550016307e-06  4.8527357260373443e-06  4.0618633779468173e-06  4.7621011104023403e-06  4.0859181875367082e-06  3.8396915791937443e-06  5.5045416619739407e-07  2.5262602859677928e-06  4.2523132201814845e-06  2.5422273581005245e-06  3.4445490029484184e-06  4.9201917865819002e-06  5.1664837768270244e-06  4.3363260807555763e-06  4.9071245595935421e-06  4.5511914776848677e-06  2.2837903292234753e-06  2.3338073144579387e-06  2.4494912912828712e-06  4.9765415134618776e-06  4.4451093603928870e-06  4.0050043329615203e-06  4.6995338886435339e-06  2.3702528371625218e-06  3.8848594074329860e-06  2.5913597984974967e-06  4.8051632366395156e-07  2.4142832474292202e-06  3.7588921903351768e-06  4.8919673141809836e-06  4.4009002331218745e-06  5.0338356368294552e-07  4.1205040829387005e-06  4.0621438906743087e-06  4.6452925899210360e-06  4.6123605460461073e-06  2.1685478413059791e-06  4.5772086896133472e-06  4.9303601702642976e-06  4.6530097243110545e-06  4.4518183364127887e-06  4.1722365413003451e-06  3.7398687639156471e-06  3.2815650295671675e-06  3.4644356919651400e-06  3.1783401228632606e-06  4.6399974746798900e-06  4.2522992157695304e-06  4.9018134536090597e-06  4.5738974479497561e-06  2.0403039018823689e-06  4.7919838306820132e-06  4.7232051442863327e-06  3.9943133172465958e-06  3.1369278211085917e-06  3.7940411608742543e-06  3.1554731421628398e-06  4.1268237858557119e-06  6.4026161250119661e-07  2.2292156283157439e-06  2.9536940113385338e-06  3.9285627688968575e-06  1.5387538829848742e-06  1.4586361701448770e-06  4.0745868049913537e-06  1.7694288161236995e-06  1.3380542169317289e-06  1.5270733650112471e-06  3.0453415940877617e-06  2.5843283565913810e-06  3.7374505370276927e-06  4.0625162643589905e-06  4.1777095911142923e-06  4.0724144652801422e-06  4.6534644353991964e-07  4.6145550790267951e-06  4.2686916970128759e-06  4.9257125865367669e-07  4.0121242813090192e-06  4.7599691178216718e-06  1.9433912506931831e-06  4.5169676166520658e-06  7.1958671422825340e-07  4.7071530982934507e-06  3.8346975621804639e-06  2.7353253719787971e-06  3.8671673977299283e-06  4.5374932557060409e-06  3.4589899800029154e-06  4.1051442300048878e-06  7.5437781691835177e-07  4.5718655456489620e-06  5.0134559497968053e-06  4.2213940120488550e-06  3.0863725282584032e-06  4.6812233581641910e-06  5.1349092241094040e-07  3.8038372075254784e-06  8.8986474590664285e-07  4.8192760839822011e-06  2.2644229630286876e-06  3.5787058701271596e-06  3.3792958412124893e-06  2.1281033811444486e-06  4.4239608685139892e-06  2.3408765908849626e-06  3.1183641428154952e-06  2.7500021217471821e-06  4.9318630313429014e-06  4.5947377960476555e-06  4.7345949634479898e-06  5.1523003105543274e-06  4.0784929507907121e-06  3.0268047382595487e-06  2.9377464429401943e-06  2.6069063438094651e-06  2.4297688176448977e-06  4.8274115912947488e-06  4.5887374119101344e-06  4.8504515101069083e-06  4.2283183345600951e-06  4.5733287948854179e-06  3.9212914853566165e-06  4.9929280092418816e-06  4.3038995789613302e-06  4.7924350771502629e-06  5.1686472783478770e-06  1.6673756381304431e-06  3.9479875051393437e-06  4.8701393514112026e-06  4.5328145978234773e-06  4.3732371579356884e-06  4.4081999734023680e-06  4.7747963320161407e-07  4.6907546970955550e-06  4.1994335275398659e-06  3.9635192208886164e-06  4.0473306120208369e-06  1.0125918605576803e-06  2.6484899121038619e-06  3.7261313028277812e-06  4.6356292099378049e-06  4.4084966438056817e-06  1.6858315565551117e-06  4.9427403903237126e-06  5.1579964509548247e-06  3.8563432854416100e-06  5.0846096167271868e-06  3.6652626344160106e-06  2.6440896093812624e-06  4.0315432833345050e-06  4.1433362568580190e-06  2.8853968332723831e-06  3.0487562580107203e-06  4.2205751695115400e-06  4.0173634008238302e-06  4.9084922748574976e-07  3.1218159206969239e-06  2.6281071497705148e-06  5.0135006375597711e-06  4.7985365396143771e-06  4.9392176061696130e-06  4.1833415245337287e-06  4.4977961463244972e-06  3.9270498745083054e-06  3.9962833566978988e-06  3.5106769948038159e-06  1.4095174171398426e-06  3.8645003706468336e-06  3.3421388174853213e-06  4.2269713832937015e-06  3.8609819078260296e-06  3.7474358897716152e-06  2.2890020965545012e-06  1.3984818709966849e-06  4.7688288358787133e-06  2.7676416766203224e-06  5.1148011118945219e-06  3.4102236771120449e-06  4.7968067849343599e-06  3.9433134644749175e-06  1.8325137998587171e-06  5.0987272968153470e-06  3.4125146993095990e-06  4.8248048123202437e-06  4.0618590562349641e-06  2.4286934843005220e-06  2.5331159282502166e-06  4.8070453979338811e-06  4.0982322087491650e-06  4.7790847769428150e-06  4.9950600153005664e-06  5.0659927408226026e-06  5.1747416936358870e-07  4.7469020860293357e-06  4.1264262015723906e-06  4.2396422993017447e-06  3.8249172571681680e-06  3.8998687858988463e-06  4.2009249174743041e-06  4.1356906322770907e-06  4.4296586551770364e-06  4.4926417643438796e-06  4.4308053182644403e-06  4.0886184857600276e-06  4.5954415454866758e-06  6.3701606070165395e-07  3.4253209810833851e-06  2.1566238633511033e-06  4.6654109806542256e-07  4.0113293459896217e-06  4.9361755052509579e-06  4.4295962279459443e-06  3.7322256449207171e-06  5.6503633195809968e-07  2.3465304226795838e-06  1.6895024320669345e-06  4.3712204265836192e-06  3.3026922365632561e-06  2.9022702214033503e-06  2.7078447237727743e-06  5.1007626771495940e-06  4.8820547949426968e-07  4.6933689228974733e-06  3.5916271850528293e-06  4.3774779764309989e-06  4.6787834131063313e-06  2.0707839357727160e-06  1.6036514742573497e-06  4.9023077263494866e-06  2.1177602431869353e-06  4.3108715272748997e-06  3.8079109637315100e-06  2.9200166413977498e-06  4.0690035219149852e-06  2.0232645969512651e-06  2.9145932052587726e-06  4.0119176889534748e-06  2.7655193541883231e-06  4.5443430478151397e-07  3.9728607557054774e-06  5.0302099693709477e-06  5.1875733516732875e-06  4.8100708970365229e-06  4.8046928781664569e-06  4.5529944130143676e-06  3.8029827766181367e-06  4.3352353679676518e-06  4.9629214552423920e-06  5.0160661757998862e-06  4.7963729532787848e-06  6.3695610019227785e-07  2.3159420337765209e-06  4.3095325528789232e-06  4.6155111590979945e-06  6.3153939521755213e-07  2.1128238794020305e-06  4.2459580929531997e-06  4.2348963625584997e-06  2.5757213598214316e-06  1.2085810927404328e-06  1.8138952785700821e-06  5.3242982335817937e-07  3.7151146390633759e-06  3.8051424014849824e-06  5.0808572879798863e-06  3.7098834724831353e-06  3.7383489200538961e-06  4.1067281291315458e-06  2.9048509090855499e-06  4.7589848253488234e-06  4.8072263839130693e-06  4.1993143162862993e-06  2.6491524366990171e-06  4.4532563741662350e-06  4.7702860949188559e-06  4.7770211027849326e-06  4.1787795404974654e-06  4.1935519547021327e-06  5.1370569078689922e-06  4.6251575938859617e-06  5.0868367671476050e-06  2.4860466419943156e-06  4.1438286792893833e-06  3.3456548074650851e-06  3.0683003240072030e-06  2.9765286294549492e-06  2.7795611700505446e-06  2.8362681904427889e-06  4.4495621405802176e-06  4.5157858397893729e-06  3.1891618436986875e-06  4.9028200406100405e-06  4.0119745425791436e-06  3.9136667064242462e-06  5.1478960018607232e-06  5.0261775671828862e-06  4.7349851696445813e-06  4.9665534583542101e-06  4.0090075153275302e-06  2.2084822713806268e-06  2.3017345868679151e-06  3.8659343278955766e-06  2.8314666585730329e-06  3.9170992379394805e-06  4.6084581358736352e-06  3.2555680896527409e-06  3.1211099219891163e-06  3.4866173082686317e-06  3.4220481944568859e-06  3.5799464707162443e-06  3.9279657351336561e-06  5.1497917955102546e-06  4.7162618086982419e-06  3.2272946443980043e-06  2.5411713586230520e-06  2.4217219474279402e-06  3.2477449786188280e-06  2.6165460235557921e-06  2.2671286640626072e-06  2.2630503376680682e-06  2.5373712225315573e-06  2.9648715977419466e-06  2.6715603707265582e-06  2.5989531728554410e-06  4.9175936906827483e-06  3.6232113177119623e-06  4.8649588187004898e-06  2.5122758226867589e-06  3.2581630137287482e-06  3.0868741616693811e-06  4.1210919347359784e-06  3.7777263988189708e-06  4.8752536166121778e-06  4.8586795940071914e-06  4.5865151204736149e-06  3.3300371555697975e-06  3.1565933248352896e-06  3.5045973441756598e-06  2.2891241535229955e-06  3.6897675338877097e-06  3.2278984475618806e-06  4.1790959448181576e-06  4.1755459384483571e-06  3.3597510217792467e-06  3.7811848123187638e-06  3.5944403093738510e-06  3.8274429740073076e-06  3.0027451684217648e-06  4.0768505546501646e-06  2.4488470964611924e-06  3.5127523608166944e-06  2.4998148847253444e-06  3.9755477937419521e-06  2.9359463844653521e-06  2.2442842439699323e-06  2.2714931535643046e-06  2.2920764856232784e-06  1.0882896915767627e-06  1.8551341454393294e-06  2.0419671188142969e-06  8.1233534014996762e-07  2.3865549800718668e-06  2.6325654130029767e-06  2.2058975600112774e-06  2.3326558425630972e-06  2.3100074926189155e-06  2.3118302508743340e-06  2.2757775147868452e-06  2.3739446097483030e-06  3.0883128244200086e-06  3.4790065792183743e-06  3.9843107104788779e-06  4.1526336918682894e-06  3.5893560427181309e-06  4.1683146775127753e-06  3.9236767806451328e-06  3.8680415167107728e-06  4.6044153746157341e-06  3.1536066502629029e-06  4.6963147033143711e-06  5.0031940271377651e-06  2.2262559651867873e-06  4.9721248367920174e-06  4.6428739615936159e-06  3.6837648262435574e-06  4.2269562981062959e-06  4.1871279878675719e-06  4.1759522057145761e-06  9.7069413791613082e-07  3.9214556653801552e-06  3.5855152974833887e-06  4.8153291102040225e-06  4.3209124355027563e-06  5.0457782677127546e-06  1.8680609869404381e-06  4.3911011587052790e-06  4.6068614968971824e-06  4.8940348133447967e-06  5.1765549042203239e-06  4.3497206264739811e-06  3.6607074129892055e-06  3.4172984120496574e-06  4.3075421035585308e-06  2.9181160146137896e-06  4.7247100847158416e-07  1.9969844145704607e-06  4.0137593199994734e-06  2.4095275594711139e-06  4.2161187951417169e-06  4.4772395534692163e-06  3.9391819141266608e-06  2.4666890549575584e-06  5.1413924584255781e-06  5.7915210732465207e-07  3.7437767018440901e-06  4.9296131557214922e-06  4.8513155879192217e-06  9.9906281273716333e-07  4.2160467446970057e-06  1.7785605715305721e-06  3.4126431284572918e-06  3.7570034217285837e-06  4.8054070215808941e-06  4.4170871510407068e-06  3.8997673576192476e-06  5.1412191065496664e-06  4.1753129347608857e-06  4.3789568810942024e-06  4.8906135410636326e-06  4.4110829149644390e-06  4.5729221597210812e-06  2.4089776945489099e-06  4.9931739488504523e-06  4.7974123393075178e-06  3.8515894305348849e-06  3.2619665235225211e-06  4.3996654437940228e-06  4.3232117984861260e-06  8.5491531095727547e-07  3.9413442331897529e-06  2.5809378011856293e-06  3.7218187935564180e-06  2.5418682464258212e-06  1.8486143415041189e-06  1.6020766910391801e-06  3.7249146644732711e-06  3.7583900298449641e-06  4.5504604595118736e-06  5.1039748478006635e-06  2.0923353437286320e-06  4.3097228887077532e-06  4.3115744751169543e-06  2.5172748457729821e-06  4.3770470333476694e-06  3.9238306181079250e-06  3.1955462537445234e-06  4.1546831052121549e-06  5.1244070606399590e-06  4.3901334941899965e-06  3.9771026924905858e-06  4.9380227997161988e-06  3.7777221256248562e-06  3.8824881292734469e-06  6.1565734952031928e-07  4.7437184486113918e-06  2.4047017708927671e-06  5.0937741374583091e-06  4.5718244698118351e-06  5.0357967108068415e-06  5.0499272386972441e-06  4.1779828742259054e-06  4.6222741107937132e-06  4.5682348500551026e-06  4.8236031167232862e-06  3.9228424827638845e-06  3.9606543003568531e-06  5.7894998924163102e-07  5.9633775398832488e-07  4.8877365527390162e-06  4.4797304639137416e-06  3.9212664928548528e-06  7.8641516487380877e-07  2.4262881688026334e-06  3.9463044240950453e-06  1.9646021104745541e-06  1.8286822668122004e-06  2.7344092971608229e-06  4.6390324120192440e-06  3.1988552195309294e-06  3.4878199333160615e-06  2.2428893060838238e-06  4.0138334347581143e-06  3.9009784047600550e-06  2.7727492661113225e-06  4.6969049156894880e-07  2.2268690724098253e-06  2.2474840014758864e-06  4.3372191088848310e-06  3.3826390471097262e-06  4.1988876676189515e-06  5.0023306489488316e-06  4.7552270190423115e-06  4.5313218459446608e-06  4.7118248702791610e-06  4.3710247346615627e-06  2.6489458100413921e-06  5.1268752589630297e-06  5.1752989419616760e-06  4.7655436848239547e-06  4.7173374760797733e-06  4.5827452746062849e-06  4.3148692016315236e-06  4.7386617179593326e-06  4.6079022527388767e-06  3.5712650981136860e-06  1.0999082555382228e-06  1.4300431548401272e-06  4.7669368856183348e-06  3.9437733832451474e-06  5.1296598398223867e-06  5.0553846528724631e-06  4.5994708420007882e-06  5.0602379223263927e-06  3.8658194886212892e-06  4.1695679749993480e-06  2.7239738297987901e-06  2.8955799219699702e-06  3.3127194198281503e-06  4.8678546696116207e-06  4.9814733913601366e-06  4.6252378801953245e-06  4.8612498955290563e-06  2.9095340239925991e-06  3.4703297324237671e-06  4.9570778457267165e-06  4.2011410452457700e-06  4.0178106922466637e-06  3.4338507764731810e-06  2.8734353457886759e-06  4.6039741246685487e-06  1.8717350457817631e-06  4.4003327055587677e-06  4.7468926499939764e-06  2.7894489056748627e-06  3.3960997187977005e-06  2.4990412652555369e-06  4.2639512353817023e-06  4.3543433297457514e-06  3.6890757291962706e-06  2.6623830774558410e-06  2.8832966723439252e-06  3.9725934569395059e-06  3.2308337090286583e-06  4.7636641877416007e-06  2.4312363636208684e-06  4.9339658297550462e-06  4.3270954891779943e-06  2.3394910823967607e-06  4.2444306804045352e-06  3.7004156676192911e-06  2.3624839350034573e-06  1.3160643021293291e-06  3.8591348277093319e-06  4.2774410264034345e-06  4.6106971358694760e-06  4.3587533537348894e-06  2.3299472266730917e-06  4.8851165259958081e-06  4.2400457184924303e-06  4.8708301949040654e-06  3.6883912739763068e-06  4.0875719047562973e-06  4.1127619841725465e-06  4.6459167701934601e-06  4.7527650801327843e-06  4.7123619207930616e-06  4.2730049638041628e-06  2.0867089148547657e-06  5.1805004951091999e-06  3.6332685646696862e-06  3.8324443805411647e-06  3.4413701469349640e-06  3.8560435334413714e-06  2.3292138760444023e-06  2.4004297059628198e-06  4.0028621276360792e-06  8.8136354062723873e-07  1.9595445602037359e-06  7.5864183388122772e-07  1.2681170079268450e-06  2.1030631988084425e-06  3.7013463805195113e-06  2.1633913933729235e-06  4.4809942605974156e-06  4.7554325006489577e-06  4.8081741164397423e-07  4.7672939263662946e-07  4.1279605715107629e-06  3.9102936741821944e-06  1.1808428513289642e-06  4.6127825558249140e-06  4.6101388492632087e-07  3.0970975710821725e-06  4.4328932506006261e-07  6.5654247255904894e-07  1.1077652786698610e-06  1.3740309135389553e-06  4.7914775095242959e-06  4.7759931268543110e-06  2.9285557348773973e-06  5.0531358139829362e-06  4.7099098151622171e-06  5.0048598405222697e-06  4.0201120584058518e-06  3.9364048562853298e-06  5.0115913753702120e-06  4.9955728722521591e-06  2.3458113668575069e-06  3.9703984898469322e-06  4.2809653751831942e-06  4.1738850523963161e-06  2.3612267564001553e-06  2.9274227824145913e-06  4.0143354755119449e-06  4.8690008147129613e-06  4.7528205722900606e-06  3.2503814970973253e-06  4.3782684238777815e-06  4.7664656733927737e-06  2.2952750318360258e-06  4.8432520233679333e-06  2.2144945400489863e-06  4.0490567637712708e-06  4.1917445190008854e-06  2.7833403966840152e-06  4.9812310129500534e-06  4.4294044059797