<?xml version="1.0"?>
<VTKFile type="UnstructuredGrid"  version="0.1"  >
<UnstructuredGrid>
<Piece  NumberOfPoints="2446" NumberOfCells="4585">
<Points>
<DataArray  type="Float64"  NumberOfComponents="3"  format="ascii">0 0.41 0  0 0 0  2.2 0 0  2.2 0.41 0  0.2404508497187474 0.2293892626146237 0  0.25 0.2 0  0.2404508497187474 0.1706107373853764 0  0.2154508497187474 0.1524471741852423 0  0.1845491502812526 0.1524471741852423 0  0.1595491502812526 0.1706107373853764 0  0.15 0.2 0  0.1595491502812526 0.2293892626146237 0  0.1845491502812527 0.2475528258147577 0  0.2154508497187474 0.2475528258147577 0  1.1 0 0  1.1 0.41 0  0 0.205 0  0.55 0 0  0.55 0.41 0  0.275 0 0  0.275 0.41 0  1.65 0.41 0  1.65 0 0  0.8250000000000001 0.41 0  0.8250000000000001 0 0  1.375 0 0  1.375 0.41 0  1.925 0 0  1.925 0.41 0  1.5125 0.205 0  1.7875 0.205 0  0.6875 0.205 0  0.9625000000000001 0.205 0  1.2375 0.205 0  2.2 0.205 0  0.4687002074688797 0.2068568464730291 0  1.99375 0.2152743902439024 0  2.0625 0 0  2.0625 0.41 0  2.2 0.3075 0  0.4125 0 0  0.4125 0.41 0  1.7875 0.41 0  1.375 0.1486128048780488 0  1.5125 0 0  1.7875 0 0  1.5125 0.41 0  0.8250000000000001 0.2613871951219511 0  0.9625000000000001 0.41 0  0.9625000000000001 0 0  0.6875 0.41 0  0.6875 0 0  0.1375 0 0  0.1375 0.41 0  1.2375 0 0  1.1 0.1486128048780487 0  1.2375 0.41 0  1.65 0.1486128048780487 0  1.126715909090909 0.2793064024390244 0  1.676715909090909 0.2793064024390244 0  0.8517159090909092 0.1306935975609756 0  1.348284090909091 0.2793064024390244 0  0.34375 0.3032389320646208 0  1.894702181800738 0.1282910975492754 0  2.092797818199262 0.1282910975492754 0  1.85625 0.3075 0  0.61875 0.3075 0  0.61875 0.1025 0  0.3648540804333487 0.1240075933101478 0  0 0.3075 0  0 0.1025 0  2.099172119769978 0.25625 0  0.48125 0.09238439620688085 0  0.5781001037344399 0.2059284232365146 0  0.48125 0.3196743479159776 0  0.7265881057911006 0.3055240343720796 0  1.99375 0.08395950269330846 0  1.459960956013612 0.3075 0  1.569025960719943 0.2986889805672169 0  0.75625 0.08213100772579164 0  1.03125 0.3278689922742084 0  0.923871252904788 0.3078247185783941 0  1.959375 0.3126371951219512 0  1.749222215368287 0.1025 0  1.275777784631713 0.1025 0  2.2 0.1025 0  1.225938124459196 0.3075 0  1.550777784631713 0.1025 0  1.000777784631713 0.1025 0  1.44375 0.07430640243902442 0  1.16875 0.07430640243902437 0  1.899250267340833 0.2229966846119207 0  0.1020898364287272 0.3140258291809757 0  1.766482954545455 0.2934032012195123 0  0.3405058858996321 0.2119987970531874 0  0.7710785630958338 0.1710968191298857 0  1.046078563095834 0.2389031808701144 0  0.2 0.3400647632937836 0  1.421109702350723 0.2261157654379721 0  0.2800464974185557 0.08982544815605742 0  0.098916018031319 0.09171660955420841 0  2.13125 0 0  2.118919042110979 0.3422084711244843 0  1.30625 0.41 0  0.89375 0 0  1.597888256393107 0.2173787389261347 0  0.20625 0 0  1.829299675393195 0.07400700849299596 0  1.71875 0.41 0  1.16875 0.41 0  2.038220665644273 0.332420740103091 0  0.34375 0 0  0.417496017710808 0.2696595573092803 0  0.2 0.07687845740457822 0  0.9295982307099278 0.1343158415898188 0  0.07390688010811153 0.1697064032433452 0  0.5238366813727013 0.2578302467013575 0  0.05452951551825875 0.25625 0  0.5229630068078351 0.1548816096928243 0  1.452769549894695 0.1548122580621249 0  1.369219062229598 0.07430640243902442 0  1.30625 0 0  0.8504409521244898 0.3356935975609756 0  0.8821881244591965 0.205 0  1.720943423819132 0.1714577452753128 0  1.157188124459196 0.205 0  1.094219062229598 0.07430640243902437 0  1.03125 0 0  1.304056576180868 0.1714577452753128 0  1.67579304192913 0.07430640243902437 0  0.2751941921308361 0.3346083473122598 0  1.209670467133757 0.1362100266964769 0  1.025335513626278 0.1700681449722324 0  0.7562500000000001 0.41 0  1.58125 0 0  0.7567170593862014 0.2409196493502535 0  0.6926714215682891 0.1272249611432207 0  0.4139715849905988 0.3397932387114203 0  0.9840787304190477 0.2717749043358119 0  0.06875000000000001 0.41 0  0 0.35875 0  0.9281250000000001 0.06276726142697993 0  0.5507396469029935 0.3219409231578227 0  0.5504468037989405 0.09136885600634273 0  1.58125 0.41 0  1.631724228912893 0.3381867502687533 0  1.825608881788174 0.14499488549201 0  1.85625 0 0  1.44375 0 0  1.44375 0.41 0  1.85625 0.41 0  2.13125 0.41 0  0.7562500000000001 0 0  0.89375 0.41 0  0.4812500000000001 0 0  0.34375 0.41 0  0.4812500000000001 0.41 0  0.20625 0.41 0  0.06875000000000001 0 0  1.16875 0 0  0.61875 0 0  0.61875 0.41 0  1.03125 0.41 0  1.71875 0 0  1.99375 0 0  1.99375 0.41 0  1.340625 0.3489494290853124 0  1.134375 0.3489494290853123 0  1.700180620188976 0.3438659752031281 0  2.135782184673599 0.07126652247502523 0  1.668441847249787 0.2129203728327609 0  1.295782514339747 0.2378437748815763 0  0.8233075729931248 0.06842334294821524 0  1.409375 0.3520314716057996 0  0.403505597322782 0.182067236678212 0  0.378125 0.05794951541303489 0  0.3043468223249023 0.1518321115979534 0  2.129248544730567 0.1906135162504124 0  2.060771381434487 0.1989445750470348 0  2.013252586573865 0.1496169464686054 0  1.942766402200229 0.1734448904596831 0  1.895522487186454 0.06076163953489683 0  2.069553871656643 0.06605731020975725 0  1.274680914880868 0.3520219391081363 0  1.614713220494657 0.09473434380863296 0  0.7899021319497519 0.3149123934144827 0  0.69518737419149 0.0634051089053758 0  0.2971740475496061 0.2592172353407536 0  1.72990325744076 0.2380068107952482 0  1.356580098625191 0.2120393231351682 0  2.034370752044885 0.2668681600792073 0  1.51768709249349 0.3426260931494756 0  1.561883724969884 0.1650446847858835 0  1.197344062229598 0.2523725417393646 0  1.804085235518364 0.3468178408964637 0  1.817887819205233 0.2589243285818559 0  1.905897727272727 0.3485060975609756 0  0.6719798073392919 0.2688965171178177 0  0 0.05125 0  0.653125 0.35875 0  0.6396896119294488 0.1627615407790282 0  0.4274150154087412 0.1242548552168279 0  1.192836486056382 0.3562350748565544 0  0.8279124365364005 0.183856489168822 0  1.097485222388854 0.2083571153401724 0  1.28257088594801 0.2944411014911587 0  1.474860187679412 0.2504218616229368 0  1.406767003493824 0.2829282258560709 0  0.446875 0.04619219810344041 0  0.515625 0.04585361801037557 0  0.592043440706648 0.05125 0  1.845656689180403 0.1998310418452388 0  2.144958525570388 0.2909790873294231 0  0.6171090763650112 0.2492366900333857 0  2.2 0.15375 0  0.5145586920831158 0.3648371739579888 0  1.57794966442982 0.3540357145964566 0  0.721875 0.3633107922168974 0  0.0496154796471391 0.333125 0  0.5843750000000001 0.3662560860076676 0  0.5810878747760798 0.1474002776121195 0  1.508991196088596 0.1421783375065625 0  0.8840670607017558 0.2640994375393898 0  0.09776612425612034 0.2204896805326566 0  1.50436820029908 0.06143401634903343 0  1.223857000523521 0.0823554862453532 0  1.153316824384777 0.1289850171317837 0  2.148922302309752 0.1258841779285271 0  0.309375 0.04312325590431198 0  1.621993280276081 0.2841214267927899 0  1.550118654119087 0.2461998729100966 0  1.327182649291491 0.1216967252533594 0  1.051977450479407 0.1221382572915816 0  1.753125 0.04556020050186112 0  1.271875 0.04556020050186116 0  0.9816084133102366 0.05126138213476004 0  1.039051841454368 0.0572224914831029 0  0.9719230514536006 0.3480477870845102 0  1.94956388244759 0.1180512551534177 0  1.949997712993411 0.04965831614304109 0  1.771961817615021 0.1530278789497521 0  1.909246823951428 0.2812757146784527 0  0.2459536687882397 0.04668633953831142 0  1.948575539857022 0.2445328248721197 0  1.697271520964565 0.1233917627620729 0  0.7964897648514618 0.1211426571931604 0  1.065625 0.3689344961371042 0  1.085849084308977 0.3170853572226867 0  0.4702981435440001 0.260434880697798 0  1.577403511714593 0.05463601888079143 0  0.05622663515370135 0.05493816910862376 0  0.3267207591099919 0.3566194660323104 0  0.9003051618565143 0.3564049499960621 0  1.751571320346033 0.3651102912045228 0  0.1583785085108421 0.2994699345738728 0  0.1455283439499995 0.3542795598723423 0  2.2 0.35875 0  0.2347662494194072 0.298325008655211 0  0.1527284455616188 0.1065771775690181 0  0.1382139529076665 0.05427454456341477 0  0.8749341636311069 0.05110114999892954 0  0.643661668713109 0.05693499781019222 0  1.466879772203159 0.3611261772912453 0  1.990280163552011 0.3564754268533217 0  1.17471064520912 0.2990917256188288 0  0.5202693090594349 0.206382495511728 0  0 0.25625 0  2.2 0.25625 0  2.2 0.05125 0  0 0.15375 0  1.853978576207987 0.35875 0  0.9787513713939683 0.1487523696999336 0  0.240625 0.3722153812029779 0  1.515638456102889 0.2882700110184686 0  0.09048297387599738 0.3637717362208066 0  2.150453692751374 0.2387066338105111 0  1.323782677156475 0.04897634338873398 0  0.8074131292871642 0.3624701995505916 0  1.409375 0.03715320121951221 0  1.406484531114799 0.1087852750766809 0  1.134375 0.03715320121951218 0  1.627401732573545 0.04552157221025036 0  0.1170173172005315 0.1427610859166811 0  2.045405893604797 0.1105340662939892 0  1.255408269734577 0.1577307500159216 0  2.028125 0.03707597992059326 0  0.4743610090857199 0.1421513964721819 0  0.9354010469015898 0.250631300585664 0  0.04420832937638274 0.128125 0  0.8922386349349938 0.0992956419364831 0  0.1197849154434487 0.2663398672460083 0  1.248258025468107 0.2565907092181813 0  0.3746885856929528 0.370723531618974 0  1.203125 0.0366132337404304 0  0.5724622277005015 0.2751253816079333 0  0.3365425205162783 0.08395777655057959 0  2.072662025974815 0.2975086504196739 0  0.4581080832182547 0.3648371739579888 0  0.3874522734668214 0.2295447548840689 0  0.7827853612484443 0.04106550386289586 0  1.887722846421017 0.1760882698830035 0  1.472640588990488 0.1118278026240017 0  1.865937103925594 0.2604137786483804 0  1.463913572748262 0.2030442564990043 0  1.376426316059077 0.3186741374914345 0  0.6641993820150034 0.3141688596240831 0  0.2943117490824315 0.2130987422685822 0  0.3478153998082709 0.1666571081082676 0  0.3427990510599805 0.2575950027870776 0  0.7997118993855807 0.2216171933356366 0  
[...]
<PointData  Scalars="f_10-2"> 
<DataArray  type="Float64"  Name="f_10-2"  format="ascii">9.5626340674152184e-09  2.3236028263450943e-08  4.9215022903414012e-11  4.7162043720706453e-11  8.9544855553837371e-07  1.3096424550694722e-06  8.8696137250395495e-07  2.8203116885378236e-07  1.0012008806254407e-07  5.9367555091926805e-08  4.5633860835534646e-08  5.7949100862217221e-08  9.4287782401679839e-08  2.6178513509400747e-07  1.3303337314887681e-06  1.0637851753238126e-06  2.1777710745396404e-08  2.9318733212754056e-07  1.8825363095302837e-07  2.0174340425776265e-07  1.2143714185212707e-07  2.0050605480699293e-07  2.2043146294703835e-07  5.7650322763132316e-07  8.0787336645976565e-07  1.0525071093822403e-06  9.0574342873301888e-07  7.6856643858426126e-09  6.9490064326712729e-09  1.5400271703609023e-06  2.0511171835304061e-07  2.5448186971633106e-06  2.9177883843790693e-06  2.8219614315671629e-06  3.0865243089937547e-10  1.8140423603834908e-06  1.2663394350361957e-08  6.9305311795905058e-10  6.1590205962900307e-10  1.9155620444305468e-10  2.2904036649509504e-07  1.4688492791461102e-07  4.6625594485481645e-08  2.1857903061561464e-06  5.9719882356841463e-07  5.1161253557945488e-08  5.2348837465706835e-07  2.1877359804841618e-06  8.4701303966418963e-07  1.1124877910202538e-06  3.3352133875537034e-07  5.0093440659814600e-07  1.0653030699770378e-07  4.9929022719480304e-08  1.3431348409101120e-06  2.7166594643167705e-06  1.1147442724646219e-06  6.4368085799072689e-07  2.2826220487931590e-06  4.6391818330602465e-07  2.2333394732941883e-06  2.0031927131908169e-06  2.8313349854343369e-07  4.5590812680028915e-08  1.8131196037499488e-09  6.1289179760432141e-08  8.4992867229196489e-07  1.1150377269805031e-06  4.7468838568252209e-07  1.3309266471788606e-08  2.1381880406496588e-08  1.7910639237640346e-09  5.3159183098527680e-07  2.2324262470939673e-06  3.6919259967993991e-07  1.1865922406620679e-06  7.4497882740396694e-09  1.3035385635579858e-06  8.5522143177220850e-07  1.2060308224224106e-06  1.4939452799431280e-06  1.6003524938602247e-06  1.3884882984649479e-08  2.1736151530503679e-07  2.0675958181111919e-06  2.0806853578692540e-10  1.8967917496637475e-06  9.6203960734737886e-07  2.0393415249467859e-06  1.2656409880815500e-06  1.8232816077801894e-06  5.1592936005564375e-08  6.5175245520338178e-08  1.8934735810407669e-07  1.2418985406655766e-06  2.6023982989056597e-06  2.7499863961984523e-06  1.7048072967133653e-07  2.0651763052031402e-06  2.6321121645865919e-07  8.8129669942380203e-08  1.6375457871791496e-10  6.1165096652152564e-10  1.0436905271374105e-06  9.6446328014921611e-07  9.8318152069191120e-07  1.6703667954189122e-07  7.1125625230187041e-08  1.0487962236691857e-07  1.1185485852100232e-06  3.0645816020421372e-09  2.1946293676623904e-07  6.7206948601006280e-07  2.2196966640627459e-07  2.4130322889490388e-06  2.4021744696181865e-08  1.3436212611814028e-06  1.9346219127161324e-08  1.6392888516387414e-06  1.8149288584038046e-06  1.5402621491421445e-06  1.2242987119734339e-06  1.0419995661506588e-06  2.8591817864341979e-06  3.8293465469362628e-07  2.9320053080812934e-06  1.7776931556249477e-06  1.2444398999706109e-06  2.5936587968335468e-06  3.4181014929890504e-07  2.0140482325319399e-07  2.5362208125882496e-06  2.8778640025169066e-06  4.4348333893889567e-07  3.8697571603020140e-07  2.3682548551459015e-06  1.7919399558571331e-06  2.1797519501075301e-07  2.2764577017089398e-06  1.7302339684998589e-08  9.9927323277243293e-09  1.3676466749028183e-06  4.9607637472702485e-07  7.2518132714778341e-07  3.4135352680061025e-07  4.3250302930954413e-07  1.1953577653222955e-07  2.0770785827727073e-08  8.2227020752294700e-07  7.2660577737842674e-07  1.9705395439091689e-08  1.5644915019662391e-10  6.4664319876804827e-07  7.0764185060876702e-07  2.4593906484734088e-07  1.3781606645007519e-07  1.5826124571295378e-07  9.0300232294261763e-08  4.3134329615656868e-08  1.3761173575516927e-06  3.8016204385241874e-07  2.4751244980348456e-07  9.6357103009016382e-07  1.1252525803754977e-07  2.3216190743742670e-09  2.2694524179436909e-09  1.3046092829461182e-06  1.3879783259748967e-06  2.3782555030236226e-07  4.7445648914794711e-10  6.0817046654927119e-07  2.5336494832997986e-06  1.1893262829322117e-06  1.1132079721539757e-06  1.4404166837158621e-06  2.6110104382426825e-07  6.2769032029632471e-07  1.1068821754756467e-09  4.0396830478631840e-09  8.3063508280615226e-09  2.7330271927415753e-08  2.6073770310440700e-08  1.6064993897401993e-09  1.3735071651474626e-06  6.2768642042152787e-07  1.1948875859064982e-06  8.0503686094960038e-07  4.9289531815391842e-07  3.4642347196784070e-07  2.4314406481570803e-06  5.5180645394301464e-09  8.1030990613987652e-07  1.1730584707719043e-06  2.5903218249276569e-06  8.0097962637393604e-08  1.2947300511950071e-07  2.1161829155296066e-08  1.6779627803411969e-06  2.1393063645385583e-08  4.0538112084269675e-07  2.1978511898885109e-06  6.8372676476547417e-07  1.3572698035076653e-06  2.7805011259125324e-06  2.9614675946197460e-06  1.9963153992303260e-06  1.6404423337564620e-06  1.7483691226622737e-06  2.6714371294993947e-07  3.2725234521249135e-07  4.6445866973888167e-07  1.0460859120742440e-07  6.0048937688479562e-10  1.8550368741201634e-06  2.7927676912150480e-10  2.1233588492549430e-07  5.3664745084967574e-07  5.0154160934514469e-07  1.4237860816982096e-08  2.7366721719615743e-07  1.7576489502985967e-06  1.4137940728282926e-06  2.2477721521852250e-06  2.6194968595424054e-08  9.1743765116703732e-07  1.9020584244938047e-06  2.4950368411216529e-06  5.9601875280665297e-10  2.3032195867507215e-07  6.7563485446559914e-07  1.2055324919695774e-06  2.1437229353920172e-06  2.3793579473142328e-06  1.2501539605830508e-07  1.5006085285277683e-06  1.3550181459295543e-06  1.5173089969105980e-06  1.1512748092387806e-06  1.9520860340055837e-08  1.0061934263040606e-08  2.2269872709002559e-07  3.6187622051571553e-08  2.1721901712742188e-07  2.4060722794823468e-08  3.9746938651294999e-07  1.9592358344439761e-06  1.1369766022609820e-06  1.7173715859366704e-06  1.0515222653872715e-06  5.9093617096754821e-07  3.1558397889883445e-08  1.7267457621529388e-07  9.2115882116742515e-07  1.1569765418158812e-07  1.5233525111504799e-07  9.5800153238130379e-08  1.0443152189541867e-10  2.0462761581447761e-07  1.6311256938302082e-07  1.4325251780280228e-07  1.1193720170016478e-06  6.1189381225854751e-07  8.6955257612253965e-07  5.2307386381234740e-09  2.0198665939652895e-06  2.0316838953640574e-06  1.8357119633186213e-08  2.7138108245464658e-10  1.1323930706996792e-10  2.2770015999546414e-08  3.7990019589616856e-08  2.6537392849723293e-06  1.3240689009473434e-07  1.1797030403213109e-06  2.8781508877708310e-08  6.9283103098851869e-10  1.4358825474816375e-06  6.7844397719277655e-07  1.1117189733597660e-06  1.7226634641259789e-06  1.4696101996647692e-06  3.8801945792709629e-07  7.2248525856876077e-08  3.8574253510000756e-09  2.6485121566135925e-06  2.2565053797932055e-09  1.1832989321892459e-06  2.5194715956085662e-06  2.4664630641208637e-08  1.8021685378631143e-06  7.9343732253756836e-08  2.4796309525020800e-06  1.6087728527420957e-07  1.4901916730184411e-06  1.2213215079542276e-06  2.8719779867985658e-07  2.3019677273770042e-09  1.8484456919553166e-07  1.1856137434974657e-06  8.2011846668624149e-07  6.0029024749047245e-08  1.4274848160891325e-06  7.1861208029798828e-08  1.8585548293622271e-06  1.5070528303150898e-06  8.7951467795233533e-07  1.2057381637047405e-06  9.3935616992415772e-07  5.5138307373170161e-07  2.6614336094722631e-06  3.0980968982817765e-07  2.1878962732988639e-07  5.3397206062248230e-10  2.4784406149360155e-06  1.8875664343452650e-06  2.8165181647959288e-06  2.1762317048382918e-06  2.6140822086668868e-06  2.2558410970264587e-06  3.6714926423582337e-07  1.2131014677318821e-09  8.6088494767862767e-07  2.4123657414734750e-06  2.2102774364519888e-06  1.0823217345729225e-07  2.1580693327754536e-08  1.1852963356027397e-08  2.8466892321366369e-10  3.1462040080756001e-10  1.0500907586497645e-09  6.8676964764003630e-08  7.0754510814411656e-07  2.6458198029546340e-07  1.4651348944573186e-07  7.1356606949299722e-09  1.3983779115292028e-07  2.1479818889801767e-06  2.8746017141648250e-06  7.0899631749991460e-07  7.9772459693774114e-07  4.2959950657479697e-07  6.3973146037682174e-07  1.5887231121493520e-07  1.9258140463279926e-07  9.0997219703148031e-07  1.0510612623861702e-06  1.6767991035354588e-10  1.5819727170712462e-10  1.1024241070273705e-08  1.1336503747882453e-06  5.5965984721419467e-07  2.8671217549046557e-06  2.6835710669044278e-06  7.3835715096991582e-07  7.4334112647729236e-08  5.2183244153742306e-08  4.8698040821199872e-07  8.6604882327319715e-09  1.5498072933606070e-06  2.0137377647262927e-07  3.0324774869571504e-08  1.4002793756893694e-06  2.0692055910110073e-07  2.5425642223246003e-07  1.7630856581166417e-06  3.3918521539557351e-07  7.1435172940350838e-08  3.9777795684656774e-09  7.8200157921679014e-07  1.2703611160829706e-06  1.2720724317307096e-06  2.1022825818546595e-09  9.2202630675504215e-07  1.7551428571993933e-07  2.9279066062732418e-06  1.5284375652488251e-06  9.3156490238125033e-07  1.9065411253293411e-06  3.1858923597084727e-07  3.7881479006350322e-07  2.6631812960952269e-06  2.0400626077539607e-06  2.6091106874377763e-06  2.7814851313193856e-06  2.8647745547456150e-06  3.0114343572676389e-08  5.5882689868566074e-10  1.7232226087626616e-06  4.9674370001803025e-09  1.6978849605860379e-06  1.1814978388428665e-08  3.4736762387640941e-08  1.2885121800894318e-08  2.0474516252242647e-08  1.1526499600198832e-06  2.7462892160979836e-07  2.6055212285498469e-07  5.1924879012949630e-07  2.7279045654796295e-08  1.3397206046774631e-06  2.6238372158555890e-07  1.0583054367998012e-08  1.8597177911644947e-09  1.9854862377431395e-06  2.3526746309277738e-06  1.6531287090011170e-06  2.6681204976726881e-08  3.4855193019090423e-07  1.8370941681411084e-07  1.3146139440105159e-07  1.3104158575955400e-06  8.9586716177635923e-07  5.8892686794215785e-07  1.6647550814743532e-06  2.2641411729409521e-08  2.4861789362431343e-06  1.6037059922897597e-06  3.4903345433183875e-09  1.6608177211580858e-06  1.4378081815333087e-07  1.0047462084255110e-07  1.4150311976304036e-06  1.3081835724094538e-07  2.2542079979222597e-06  1.8452097642781207e-06  9.7972268496543845e-07  2.0516826305325953e-06  3.8622573473206307e-07  7.6098269597460830e-07  1.9087563242144897e-06  7.3849852381829263e-07  1.5689945048253398e-08  6.5624251052734091e-07  3.0800043550005807e-07  2.7308134532547991e-06  3.0756625351779416e-07  2.3789615322366341e-06  1.9008231440249495e-06  1.2539756582836525e-06  2.2675631444820831e-06  5.0363346549751972e-07  2.3934956132882967e-06  1.5834862066157778e-08  4.6769971022210417e-08  2.0762654646417549e-07  2.1635735150590976e-06  2.3401623435961184e-06  3.7352013502481640e-08  1.9391239511171531e-07  6.2846140166997368e-07  3.8513075045565320e-07  5.7119221710784399e-07  1.6126166698147223e-07  3.7329011912002974e-07  2.1853806373830976e-08  1.6446498861767500e-06  3.1809711800454624e-07  9.9617482141656670e-07  5.7767395488971447e-07  1.7197654592273078e-06  3.3112256225376410e-08  7.9911239453812910e-07  3.7020350227060985e-09  7.0995544450168391e-09  1.8140203902320334e-06  1.0799694503348554e-06  1.2241386308350551e-09  1.3805404591590277e-09  5.5901027260932127e-10  1.3573455935244443e-07  7.8956829540683829e-07  2.9560403975105102e-06  2.5352407926038393e-06  2.9290932667717105e-06  5.3065098938292183e-07  1.3952750231099429e-06  1.3190494077317909e-06  1.1627651853913690e-06  1.0704559496584963e-06  8.8555114832073736e-07  9.2228409792341548e-07  3.3627213002134063e-10  9.1069958710783620e-10  1.2763295209269728e-06  2.2702939236660630e-08  4.4430739334443126e-10  1.7574177126154410e-06  2.8462906030363725e-06  2.8547821361493486e-06  7.4529289695413780e-08  1.6941569064856842e-07  1.8766248097713731e-06  2.4281493754348408e-07  1.6303045190373769e-07  1.8633699456093777e-06  1.1632272630155651e-06  1.8129786184324493e-06  2.5122394032949053e-06  1.2117019056087482e-06  1.0977454628543624e-06  1.1856148804738261e-06  9.7332568541797980e-07  1.0732292712191841e-06  1.8210184022107923e-06  2.0444870051483729e-06  1.1516924259763702e-09  1.1202769768315037e-06  5.0977432199340077e-07  2.6645910225812126e-07  1.4277160702310250e-06  8.3582972201969832e-07  2.4515942947386538e-07  2.2390704790250234e-07  3.6567182081016097e-07  8.0167052433004385e-07  5.1213683664121351e-07  4.5635781119541139e-07  9.0426867680518923e-08  1.4626102119464137e-06  2.6953122448893547e-06  5.3420482673091240e-07  1.2900117909163123e-06  1.1069799277399217e-06  1.4083995258996318e-06  1.4405752478255595e-07  1.2665836849464711e-08  6.9742928318813101e-09  1.7388782744091807e-08  1.0823378343622870e-06  1.1457157683642074e-06  1.4725363874097783e-06  2.6858370143293455e-07  1.1506221382129533e-06  1.2963919414004258e-06  7.9379224983146130e-11  3.2981451040293922e-10  1.3614738718096739e-06  9.4702028248645280e-07  6.2560122354443697e-07  7.2070471778547525e-08  1.0187495496613935e-06  7.9401310644664319e-08  3.8721464535898950e-07  8.1589708134624451e-07  5.7289905107447675e-07  7.8030207740375618e-11  1.0452614472674297e-06  1.4269412944150492e-07  2.3442559314937033e-07  1.5083984554941417e-07  7.1750303550707872e-08  1.0784896261555972e-07  1.8627413445854280e-07  3.0343772453521660e-08  4.3483119056274514e-07  7.2569468266941223e-07  2.1230389493730181e-07  2.1238498987923943e-07  1.6942472432977873e-07  3.3017637093452544e-07  2.6299600080274541e-07  2.8280763709904015e-07  1.1878691583814111e-06  1.3627748279560687e-06  2.9460921527576145e-07  4.2381326208555424e-09  1.2930100917032504e-06  1.2679307136372240e-09  3.9278187871695798e-09  1.4617617444229262e-07  7.1955008795921144e-09  1.1893249718482879e-06  1.6798049058029280e-06  2.7811429542514389e-06  3.4530664390032859e-07  2.3709870620627271e-06  2.1745265513844038e-06  1.5900814058748336e-06  9.0286658238125099e-07  1.0852998550790790e-06  1.4221049147043222e-08  1.0015450364111047e-07  1.1295863788154715e-06  8.7167960768602266e-07  4.2135921150202013e-07  3.6149340261502693e-08  4.4751589560595139e-07  2.4221214998588548e-07  2.2402224944073845e-06  9.5209903711692404e-08  5.6974013232969425e-07  2.6111551917527059e-06  2.3337861974482338e-08  6.6674348350056998e-07  1.3080584391316826e-06  2.1787780195155574e-06  9.2874368180682763e-07  2.0361268250565844e-08  2.3580369315200889e-07  4.1017183025056182e-07  2.9006217433610219e-07  1.1514353208503861e-09  1.5841612457901545e-09  1.9342100708305865e-06  3.7077044065962520e-07  2.3870565511400256e-06  3.5869279432271540e-08  1.5582721690486785e-06  3.6845125660090361e-08  3.9239921208776943e-08  4.6598669647288982e-08  1.3367951418798844e-09  1.9419383013300698e-07  1.2521603929498165e-06  1.5985430384935304e-06  2.6362412932230983e-06  4.1203365932965469e-09  5.2748459797960485e-08  2.9505521986963947e-06  6.5500572662482224e-08  3.3448049199085824e-07  1.0437501757204618e-07  1.2074611221134288e-08  4.3239331360437495e-10  4.7634279193480065e-07  2.8530614319692350e-06  1.0065440619847494e-06  1.8336983708748329e-06  1.2135523124054668e-06  7.4178155937648312e-07  4.5229929233807533e-07  9.7541959755823789e-08  1.3056103603619052e-08  8.1186680622038991e-07  4.5367950122382370e-07  9.0906855163298334e-07  3.5045298828405642e-07  1.3755747602410491e-07  1.7145488737028849e-06  3.7759358994451403e-07  2.4376596665897755e-06  1.3900334007964709e-06  2.3659273298247165e-07  1.8027453996005334e-06  2.2612798636901952e-06  5.7535804873054135e-07  2.2609325512629616e-06  2.0718248296601481e-08  1.0518074761713948e-06  1.4279094280072192e-08  2.7953833043659110e-06  2.3258440840797114e-06  5.0385300869804097e-07  1.5423455984609617e-07  1.7888185837669376e-06  1.7404820334594352e-06  4.6619062490055705e-08  2.6882909901299642e-07  4.3091124002856088e-07  2.6929535933026059e-06  2.3122121023498154e-06  2.7835186912129397e-06  6.2970819122329403e-07  1.1089178678778124e-06  1.5568173946356013e-07  9.2319044546611797e-08  2.2335029577239763e-09  7.4203348679827739e-07  4.3911674978261006e-09  2.2541200591948003e-08  2.4557336063040120e-08  1.2236237329882163e-06  3.3617373489331581e-08  1.6231194516858740e-06  5.6225399662790040e-08  2.5809631229349673e-07  6.8887086459235053e-07  1.8424120882713546e-07  1.2438467746853824e-07  5.8369500957951656e-07  1.2155068132007217e-08  1.1495337571710394e-06  1.0728858295270541e-06  2.0871128132634444e-07  1.7952665178555928e-06  3.1603730473300037e-08  7.7267208636936459e-07  1.9823332229266476e-08  3.5064379677470679e-07  2.3019689413173328e-07  9.2808149480625301e-10  1.2515912779983488e-06  5.2111241112862055e-08  2.6830740269332848e-06  6.8144496641106848e-07  5.2885865091929413e-08  2.9486373992320245e-10  2.2307640584637803e-06  6.6689263353982721e-07  2.9396875727897704e-06  2.9569397745577361e-06  2.6526696572325088e-06  6.0595697165801731e-07  2.4799781466325436e-06  2.3920440156011016e-10  2.5756775477920581e-06  3.2119640477934239e-09  1.6119583092939105e-06  6.5325883218328060e-08  1.1441368506267507e-07  4.9709920868335304e-08  1.8216159101729683e-06  2.2428823654687515e-06  1.8721174973795356e-06  1.4575791300947768e-06  1.6186623166194027e-06  9.6193546705702487e-07  4.0577380865636340e-08  8.1060403026956085e-07  9.3111038924474833e-07  1.2792946450907866e-06  2.7180155008053445e-06  2.8200436510146428e-06  1.9283291721487104e-06  1.9134869264761238e-06  8.1778270772945078e-07  1.5026434700798896e-06  7.1701295938966197e-08  2.0694042217319855e-06  1.8593447009483117e-06  1.2724804230764434e-06  7.5593630543903477e-07  2.4295718641969916e-10  1.7373012041848287e-07  2.1145823619683343e-06  2.3517148574957051e-06  7.4266198738713817e-07  1.1577805273029042e-06  4.3554502373895319e-07  1.9068387096598109e-07  2.1980969920914777e-06  1.6193554342019534e-06  6.8247317399172663e-07  1.1341007805777772e-06  2.5491934246515851e-09  1.3101279149070897e-06  2.5948311395820244e-06  4.3895171338439400e-07  1.6104213254585453e-06  5.1307989228453797e-07  3.5532570007172501e-07  2.1844928393832468e-06  1.6865640169644040e-06  3.6568193954334164e-07  1.5976323260713428e-07  7.1311444400194551e-08  5.5662013726183871e-10  9.5044193904742381e-10  3.1211822613093525e-10  1.8648670319979414e-07  7.2680739884316274e-08  7.8682720610455739e-09  2.7413146239571130e-06  1.3532922402474353e-06  1.1454009243461624e-07  7.7297226092705910e-08  8.1157219233242699e-07  2.6212448279798711e-06  2.5232517674405407e-06  2.1648236414438776e-06  2.6004707305733357e-07  2.5279943535731215e-06  1.5005188751370669e-06  1.7522592397663780e-06  1.4049143280492530e-06  1.7152400427686946e-06  1.7655602368918602e-07  2.3365222012134717e-07  1.7146315196367398e-06  6.1801855497943846e-08  2.1473509063138795e-07  4.0454566847845974e-08  6.6080671122200125e-08  2.0721962076628484e-07  1.6959471807043742e-06  1.4153520039624134e-07  2.3970514722501479e-06  2.9419347397604585e-10  2.2271258563290652e-08  2.1193073116211670e-08  6.8183410485524093e-07  4.4855219432160199e-07  1.3117023891325339e-07  2.9015044198999144e-08  1.4678533693840314e-08  1.0934147954251144e-06  1.1258419892134221e-08  3.1234881620799678e-08  1.2073667003996063e-07  1.4073688726948725e-07  2.5789950582624699e-08  2.3097796870571568e-09  7.6238060116737777e-07  1.3961805730182500e-06  1.0184984073057608e-06  1.0891644042296183e-06  1.5564606520034060e-06  1.8337246977060050e-06  8.3948793839082507e-07  1.4885519761151718e-07  2.0827884821607026e-07  9.1619416029209529e-08  1.6561508924015694e-08  8.8135014005585986e-09  2.2507538527553480e-07  1.0971078069072436e-06  1.7602914267859182e-07  2.7332134272682770e-06  2.2914103718500621e-07  1.1766959992017693e-06  1.5137961972452235e-06  2.6577670319757770e-06  2.8826331126295286e-07  6.3780082019439908e-08  2.1982800394994185e-07  1.7936828727069326e-06  2.1354868103007047e-06  6.6535556772837992e-07  4.9814847601901380e-07  2.2275053990992