<?xml version="1.0"?>
<VTKFile type="UnstructuredGrid"  version="0.1"  >
<UnstructuredGrid>
<Piece  NumberOfPoints="2446" NumberOfCells="4585">
<Points>
<DataArray  type="Float64"  NumberOfComponents="3"  format="ascii">0 0.41 0  0 0 0  2.2 0 0  2.2 0.41 0  0.2404508497187474 0.2293892626146237 0  0.25 0.2 0  0.2404508497187474 0.1706107373853764 0  0.2154508497187474 0.1524471741852423 0  0.1845491502812526 0.1524471741852423 0  0.1595491502812526 0.1706107373853764 0  0.15 0.2 0  0.1595491502812526 0.2293892626146237 0  0.1845491502812527 0.2475528258147577 0  0.2154508497187474 0.2475528258147577 0  1.1 0 0  1.1 0.41 0  0 0.205 0  0.55 0 0  0.55 0.41 0  0.275 0 0  0.275 0.41 0  1.65 0.41 0  1.65 0 0  0.8250000000000001 0.41 0  0.8250000000000001 0 0  1.375 0 0  1.375 0.41 0  1.925 0 0  1.925 0.41 0  1.5125 0.205 0  1.7875 0.205 0  0.6875 0.205 0  0.9625000000000001 0.205 0  1.2375 0.205 0  2.2 0.205 0  0.4687002074688797 0.2068568464730291 0  1.99375 0.2152743902439024 0  2.0625 0 0  2.0625 0.41 0  2.2 0.3075 0  0.4125 0 0  0.4125 0.41 0  1.7875 0.41 0  1.375 0.1486128048780488 0  1.5125 0 0  1.7875 0 0  1.5125 0.41 0  0.8250000000000001 0.2613871951219511 0  0.9625000000000001 0.41 0  0.9625000000000001 0 0  0.6875 0.41 0  0.6875 0 0  0.1375 0 0  0.1375 0.41 0  1.2375 0 0  1.1 0.1486128048780487 0  1.2375 0.41 0  1.65 0.1486128048780487 0  1.126715909090909 0.2793064024390244 0  1.676715909090909 0.2793064024390244 0  0.8517159090909092 0.1306935975609756 0  1.348284090909091 0.2793064024390244 0  0.34375 0.3032389320646208 0  1.894702181800738 0.1282910975492754 0  2.092797818199262 0.1282910975492754 0  1.85625 0.3075 0  0.61875 0.3075 0  0.61875 0.1025 0  0.3648540804333487 0.1240075933101478 0  0 0.3075 0  0 0.1025 0  2.099172119769978 0.25625 0  0.48125 0.09238439620688085 0  0.5781001037344399 0.2059284232365146 0  0.48125 0.3196743479159776 0  0.7265881057911006 0.3055240343720796 0  1.99375 0.08395950269330846 0  1.459960956013612 0.3075 0  1.569025960719943 0.2986889805672169 0  0.75625 0.08213100772579164 0  1.03125 0.3278689922742084 0  0.923871252904788 0.3078247185783941 0  1.959375 0.3126371951219512 0  1.749222215368287 0.1025 0  1.275777784631713 0.1025 0  2.2 0.1025 0  1.225938124459196 0.3075 0  1.550777784631713 0.1025 0  1.000777784631713 0.1025 0  1.44375 0.07430640243902442 0  1.16875 0.07430640243902437 0  1.899250267340833 0.2229966846119207 0  0.1020898364287272 0.3140258291809757 0  1.766482954545455 0.2934032012195123 0  0.3405058858996321 0.2119987970531874 0  0.7710785630958338 0.1710968191298857 0  1.046078563095834 0.2389031808701144 0  0.2 0.3400647632937836 0  1.421109702350723 0.2261157654379721 0  0.2800464974185557 0.08982544815605742 0  0.098916018031319 0.09171660955420841 0  2.13125 0 0  2.118919042110979 0.3422084711244843 0  1.30625 0.41 0  0.89375 0 0  1.597888256393107 0.2173787389261347 0  0.20625 0 0  1.829299675393195 0.07400700849299596 0  1.71875 0.41 0  1.16875 0.41 0  2.038220665644273 0.332420740103091 0  0.34375 0 0  0.417496017710808 0.2696595573092803 0  0.2 0.07687845740457822 0  0.9295982307099278 0.1343158415898188 0  0.07390688010811153 0.1697064032433452 0  0.5238366813727013 0.2578302467013575 0  0.05452951551825875 0.25625 0  0.5229630068078351 0.1548816096928243 0  1.452769549894695 0.1548122580621249 0  1.369219062229598 0.07430640243902442 0  1.30625 0 0  0.8504409521244898 0.3356935975609756 0  0.8821881244591965 0.205 0  1.720943423819132 0.1714577452753128 0  1.157188124459196 0.205 0  1.094219062229598 0.07430640243902437 0  1.03125 0 0  1.304056576180868 0.1714577452753128 0  1.67579304192913 0.07430640243902437 0  0.2751941921308361 0.3346083473122598 0  1.209670467133757 0.1362100266964769 0  1.025335513626278 0.1700681449722324 0  0.7562500000000001 0.41 0  1.58125 0 0  0.7567170593862014 0.2409196493502535 0  0.6926714215682891 0.1272249611432207 0  0.4139715849905988 0.3397932387114203 0  0.9840787304190477 0.2717749043358119 0  0.06875000000000001 0.41 0  0 0.35875 0  0.9281250000000001 0.06276726142697993 0  0.5507396469029935 0.3219409231578227 0  0.5504468037989405 0.09136885600634273 0  1.58125 0.41 0  1.631724228912893 0.3381867502687533 0  1.825608881788174 0.14499488549201 0  1.85625 0 0  1.44375 0 0  1.44375 0.41 0  1.85625 0.41 0  2.13125 0.41 0  0.7562500000000001 0 0  0.89375 0.41 0  0.4812500000000001 0 0  0.34375 0.41 0  0.4812500000000001 0.41 0  0.20625 0.41 0  0.06875000000000001 0 0  1.16875 0 0  0.61875 0 0  0.61875 0.41 0  1.03125 0.41 0  1.71875 0 0  1.99375 0 0  1.99375 0.41 0  1.340625 0.3489494290853124 0  1.134375 0.3489494290853123 0  1.700180620188976 0.3438659752031281 0  2.135782184673599 0.07126652247502523 0  1.668441847249787 0.2129203728327609 0  1.295782514339747 0.2378437748815763 0  0.8233075729931248 0.06842334294821524 0  1.409375 0.3520314716057996 0  0.403505597322782 0.182067236678212 0  0.378125 0.05794951541303489 0  0.3043468223249023 0.1518321115979534 0  2.129248544730567 0.1906135162504124 0  2.060771381434487 0.1989445750470348 0  2.013252586573865 0.1496169464686054 0  1.942766402200229 0.1734448904596831 0  1.895522487186454 0.06076163953489683 0  2.069553871656643 0.06605731020975725 0  1.274680914880868 0.3520219391081363 0  1.614713220494657 0.09473434380863296 0  0.7899021319497519 0.3149123934144827 0  0.69518737419149 0.0634051089053758 0  0.2971740475496061 0.2592172353407536 0  1.72990325744076 0.2380068107952482 0  1.356580098625191 0.2120393231351682 0  2.034370752044885 0.2668681600792073 0  1.51768709249349 0.3426260931494756 0  1.561883724969884 0.1650446847858835 0  1.197344062229598 0.2523725417393646 0  1.804085235518364 0.3468178408964637 0  1.817887819205233 0.2589243285818559 0  1.905897727272727 0.3485060975609756 0  0.6719798073392919 0.2688965171178177 0  0 0.05125 0  0.653125 0.35875 0  0.6396896119294488 0.1627615407790282 0  0.4274150154087412 0.1242548552168279 0  1.192836486056382 0.3562350748565544 0  0.8279124365364005 0.183856489168822 0  1.097485222388854 0.2083571153401724 0  1.28257088594801 0.2944411014911587 0  1.474860187679412 0.2504218616229368 0  1.406767003493824 0.2829282258560709 0  0.446875 0.04619219810344041 0  0.515625 0.04585361801037557 0  0.592043440706648 0.05125 0  1.845656689180403 0.1998310418452388 0  2.144958525570388 0.2909790873294231 0  0.6171090763650112 0.2492366900333857 0  2.2 0.15375 0  0.5145586920831158 0.3648371739579888 0  1.57794966442982 0.3540357145964566 0  0.721875 0.3633107922168974 0  0.0496154796471391 0.333125 0  0.5843750000000001 0.3662560860076676 0  0.5810878747760798 0.1474002776121195 0  1.508991196088596 0.1421783375065625 0  0.8840670607017558 0.2640994375393898 0  0.09776612425612034 0.2204896805326566 0  1.50436820029908 0.06143401634903343 0  1.223857000523521 0.0823554862453532 0  1.153316824384777 0.1289850171317837 0  2.148922302309752 0.1258841779285271 0  0.309375 0.04312325590431198 0  1.621993280276081 0.2841214267927899 0  1.550118654119087 0.2461998729100966 0  1.327182649291491 0.1216967252533594 0  1.051977450479407 0.1221382572915816 0  1.753125 0.04556020050186112 0  1.271875 0.04556020050186116 0  0.9816084133102366 0.05126138213476004 0  1.039051841454368 0.0572224914831029 0  0.9719230514536006 0.3480477870845102 0  1.94956388244759 0.1180512551534177 0  1.949997712993411 0.04965831614304109 0  1.771961817615021 0.1530278789497521 0  1.909246823951428 0.2812757146784527 0  0.2459536687882397 0.04668633953831142 0  1.948575539857022 0.2445328248721197 0  1.697271520964565 0.1233917627620729 0  0.7964897648514618 0.1211426571931604 0  1.065625 0.3689344961371042 0  1.085849084308977 0.3170853572226867 0  0.4702981435440001 0.260434880697798 0  1.577403511714593 0.05463601888079143 0  0.05622663515370135 0.05493816910862376 0  0.3267207591099919 0.3566194660323104 0  0.9003051618565143 0.3564049499960621 0  1.751571320346033 0.3651102912045228 0  0.1583785085108421 0.2994699345738728 0  0.1455283439499995 0.3542795598723423 0  2.2 0.35875 0  0.2347662494194072 0.298325008655211 0  0.1527284455616188 0.1065771775690181 0  0.1382139529076665 0.05427454456341477 0  0.8749341636311069 0.05110114999892954 0  0.643661668713109 0.05693499781019222 0  1.466879772203159 0.3611261772912453 0  1.990280163552011 0.3564754268533217 0  1.17471064520912 0.2990917256188288 0  0.5202693090594349 0.206382495511728 0  0 0.25625 0  2.2 0.25625 0  2.2 0.05125 0  0 0.15375 0  1.853978576207987 0.35875 0  0.9787513713939683 0.1487523696999336 0  0.240625 0.3722153812029779 0  1.515638456102889 0.2882700110184686 0  0.09048297387599738 0.3637717362208066 0  2.150453692751374 0.2387066338105111 0  1.323782677156475 0.04897634338873398 0  0.8074131292871642 0.3624701995505916 0  1.409375 0.03715320121951221 0  1.406484531114799 0.1087852750766809 0  1.134375 0.03715320121951218 0  1.627401732573545 0.04552157221025036 0  0.1170173172005315 0.1427610859166811 0  2.045405893604797 0.1105340662939892 0  1.255408269734577 0.1577307500159216 0  2.028125 0.03707597992059326 0  0.4743610090857199 0.1421513964721819 0  0.9354010469015898 0.250631300585664 0  0.04420832937638274 0.128125 0  0.8922386349349938 0.0992956419364831 0  0.1197849154434487 0.2663398672460083 0  1.248258025468107 0.2565907092181813 0  0.3746885856929528 0.370723531618974 0  1.203125 0.0366132337404304 0  0.5724622277005015 0.2751253816079333 0  0.3365425205162783 0.08395777655057959 0  2.072662025974815 0.2975086504196739 0  0.4581080832182547 0.3648371739579888 0  0.3874522734668214 0.2295447548840689 0  0.7827853612484443 0.04106550386289586 0  1.887722846421017 0.1760882698830035 0  1.472640588990488 0.1118278026240017 0  1.865937103925594 0.2604137786483804 0  1.463913572748262 0.2030442564990043 0  1.376426316059077 0.3186741374914345 0  0.6641993820150034 0.3141688596240831 0  0.2943117490824315 0.2130987422685822 0  0.3478153998082709 0.1666571081082676 0  0.3427990510599805 0.2575950027870776 0  0.7997118993855807 0.2216171933356366 0  
[...]
<PointData  Scalars="f_10-2"> 
<DataArray  type="Float64"  Name="f_10-2"  format="ascii">2.8523335348465654e-07  3.8501605557093565e-07  3.6713474610280169e-06  3.4493774383716455e-06  2.0049929386468679e-06  2.5004234141282465e-06  1.9046151715963193e-06  9.9517994378272218e-07  5.9090674862439473e-07  4.3574385408082813e-07  3.9052352346784875e-07  4.4805433506172694e-07  6.2969465956155011e-07  1.0585265436892467e-06  2.7333463375112534e-06  2.4512308967454116e-06  3.1054562048449335e-07  1.6806231205588419e-06  1.6454296019908075e-06  1.5466448206310142e-06  1.4055884481951030e-06  3.1909097262409878e-06  3.4796924489533898e-06  1.9515422713743534e-06  2.1308258215571867e-06  3.1940402286888987e-06  2.8858263359212808e-06  3.6270601939638577e-06  3.3677785267407879e-06  4.5533647171703571e-06  4.4436150492032523e-06  4.0848210888685252e-06  4.4900668357663129e-06  4.5949410754867584e-06  4.2211599033932717e-06  3.2433409428760853e-06  4.3182356764629999e-06  3.6624194522464651e-06  3.4211684405905724e-06  3.7977026925150940e-06  1.6486812437354976e-06  1.6026973626279007e-06  3.2921956230342234e-06  4.3760717008641004e-06  3.3592294130154463e-06  3.5666619617211237e-06  3.0548890237548684e-06  3.7282330074934654e-06  2.1989381323667692e-06  2.4394515892917060e-06  1.7492037310922226e-06  1.8476215095935982e-06  9.9058059906509630e-07  7.4424411402321320e-07  2.9909713524039941e-06  4.2817496974664011e-06  2.6861281263960588e-06  4.3567407875165918e-06  3.8328898807360165e-06  4.0494297004326385e-06  3.7104493514415266e-06  3.9817714288422852e-06  1.7085736526913976e-06  4.1749693818867423e-06  4.1144035843155971e-06  3.8130045772713726e-06  2.3582156522099106e-06  2.5210854432737163e-06  1.7061214897548150e-06  2.8041644164690095e-07  3.2917872429044100e-07  4.1137020842143023e-06  1.9072835744011638e-06  3.7339149840261349e-06  1.8791919246884382e-06  2.6833239789647364e-06  3.9023127389213306e-06  3.6861776602329271e-06  3.8360674580413851e-06  2.5990985263548998e-06  2.9257965726668028e-06  3.0684472329689108e-06  3.7813657522784360e-06  4.0140138747903031e-06  3.8161685194965187e-06  3.9644127046905174e-06  3.4973795366213267e-06  3.9730795885454953e-06  3.4837690123235452e-06  3.6354101731455769e-06  3.3249152556982479e-06  4.3470376987533733e-06  6.7306734728615313e-07  3.9260853649761600e-06  2.5343704784133704e-06  4.1283994186182658e-06  4.3238910455502502e-06  1.4272323823031264e-06  4.5053659970931765e-06  1.4240732589582493e-06  6.9683646525068626e-07  3.6682049359658099e-06  3.6103775656785323e-06  2.7918407962769343e-06  2.2841465476618151e-06  4.4956887828496555e-06  1.3578196732188448e-06  3.8293853485318070e-06  3.2472362922049197e-06  2.5719741859540763e-06  3.6573358651344941e-06  1.6261136838301060e-06  2.1376451825347186e-06  1.3266368860247553e-06  3.9050364469577047e-06  3.2156381242648610e-07  2.8568615491562173e-06  3.0262860015188207e-07  3.0443864511620574e-06  4.4255785068562116e-06  3.5683986687788331e-06  3.0917895796374645e-06  2.4768368663173674e-06  4.4257508390733312e-06  4.4401142202468792e-06  4.5854765514508982e-06  3.2105698239105906e-06  2.5960298838364199e-06  4.5325454870725396e-06  3.7800291312892394e-06  1.5816958368201187e-06  4.1997488030753570e-06  4.4397116055703205e-06  1.8364728548053565e-06  3.4264211580376352e-06  3.9229156238221012e-06  3.2396536969965781e-06  1.7076900870872197e-06  3.8017620052637168e-06  3.8261540167906405e-07  2.7541748670079636e-07  2.7350200825844450e-06  2.0024605256912455e-06  2.1154239318650174e-06  3.1264042903962915e-06  3.4770187470247794e-06  4.2887840679348315e-06  3.6001193740635116e-06  3.2773385424866300e-06  2.9768082345326309e-06  3.3373012856078127e-06  3.4387938376129376e-06  1.9783191153370884e-06  2.0660503105579024e-06  1.6544446087850153e-06  1.5427344319588518e-06  1.6243943767791553e-06  1.1400024906635379e-06  5.4019319817835933e-07  2.8721189904619286e-06  1.7457306286233618e-06  1.6858878810161853e-06  2.3210008747345045e-06  3.5257168019823560e-06  3.6442618432139412e-06  3.4001012266061383e-06  3.1079810093932577e-06  2.8230141533550109e-06  3.4710798427698331e-06  3.8346727486955281e-06  4.4804246006358276e-06  4.4251694888061152e-06  2.5630745635724950e-06  3.1657832748771762e-06  2.7545556580294688e-06  1.6410022048370007e-06  1.6886808096159119e-06  4.2616655659583540e-06  4.3017907682994757e-06  4.2366581666969291e-06  4.3434823602154559e-06  3.7706609823715123e-06  3.8140911606473980e-06  2.9989296600350081e-06  3.9235570616147765e-06  2.6700423261451792e-06  2.1816590909444585e-06  1.6700703445137658e-06  4.3548553693707631e-06  4.5739125894275706e-06  4.0805288109482503e-06  3.3522171088781390e-06  4.4671646015536546e-06  4.2527311279518599e-06  3.5035589636601276e-06  4.1983645144126822e-06  3.5348601185117809e-06  3.2124093028558218e-06  3.5555836628969452e-07  1.8619583720744386e-06  3.6770430057491305e-06  1.9980537936221609e-06  2.8388941990450163e-06  4.3292198495670728e-06  4.5711388830358370e-06  3.7376569036630102e-06  4.3227659310364628e-06  3.9612467477817595e-06  1.6735393345074709e-06  1.7263108527866923e-06  1.8496070353193128e-06  4.4180777613282484e-06  3.9037635980892350e-06  3.3906343155790040e-06  4.1667336212028561e-06  1.6946820094178893e-06  3.3108601600068311e-06  1.9344615700183556e-06  3.0219843780827578e-07  1.7423696596609118e-06  3.1910887014426444e-06  4.3283995494140076e-06  3.7831229254587296e-06  3.2982443391027318e-07  3.5766809513055570e-06  3.5014486530864472e-06  4.0711396012263338e-06  4.0828660705680511e-06  1.5805793154117457e-06  4.0014405821766720e-06  4.3506886072316800e-06  4.0871542089685825e-06  3.8760406597417790e-06  3.6419992117290038e-06  3.1884187155941170e-06  2.7133384922964622e-06  2.8989161371050239e-06  2.5511464481855476e-06  4.1027097501135428e-06  3.7295145456081999e-06  4.3479110333906016e-06  4.0167066857710816e-06  1.4856325910188151e-06  4.2363857649871858e-06  4.1729247657208702e-06  3.4139404987017789e-06  2.5194444269063142e-06  3.1793752233046782e-06  2.5436242348659744e-06  3.5874597875442872e-06  4.2289486279357061e-07  1.5902940005652178e-06  2.3182985841993490e-06  3.3685374835554348e-06  1.1124108900368964e-06  1.0179684074861284e-06  3.5437894880411398e-06  1.2997232179447338e-06  9.7522150030471021e-07  1.0931130954239177e-06  2.4698669162951924e-06  1.9902873431397365e-06  3.1554964172098962e-06  3.5181425790042422e-06  3.5711643534072962e-06  3.5006202566042688e-06  2.9802874921654846e-07  4.0739399876973872e-06  3.7556668913408966e-06  3.2008257382007878e-07  3.4586533742740584e-06  4.1769829908868235e-06  1.3697539180979222e-06  3.9342713545475007e-06  4.7200583929503650e-07  4.1638944145575606e-06  3.2851859683028459e-06  2.0888594190006339e-06  3.3234489944460957e-06  3.9782566989566889e-06  2.9016215521092687e-06  3.5695831146835243e-06  5.2631384611428135e-07  4.0407475892836085e-06  4.4355889204123077e-06  3.7037034173486538e-06  2.5386869630929307e-06  4.0696703650423670e-06  3.3487703146796698e-07  3.2266158210062853e-06  6.2561094211249146e-07  4.2214710352531140e-06  1.6054810111330809e-06  3.0250818370736043e-06  2.7468953850586536e-06  1.5780732524295702e-06  3.8785324818134834e-06  1.6669116520357465e-06  2.5653415699793943e-06  2.1672530570930837e-06  4.3792457237611204e-06  4.0375327610307020e-06  4.1738846708461432e-06  4.5731707925831581e-06  3.4866673960887918e-06  2.3759925170739079e-06  2.4441928409323962e-06  2.1258874504479731e-06  1.8807371961831426e-06  4.2238610502386577e-06  4.0194786330279649e-06  4.2840955735095667e-06  3.7137627298232255e-06  3.9905350622510966e-06  3.3412488962402751e-06  4.3894408112777131e-06  3.6895013479806260e-06  4.1867780426921979e-06  4.5890088905167759e-06  1.2789520590380045e-06  3.4108597919214395e-06  4.3111291355748495e-06  3.9419448986528917e-06  3.7599304416580552e-06  3.8461133959897723e-06  3.0940372474254171e-07  4.1378134660639289e-06  3.6636234940417641e-06  3.4310325743706545e-06  3.5094805467733012e-06  6.9815987648839038e-07  2.0612686746940644e-06  3.1597422197448549e-06  4.0923148650920807e-06  3.8591081486235945e-06  1.1991792875014158e-06  4.3534889900096070e-06  4.5723129706126349e-06  3.3191449499063888e-06  4.5164045401449125e-06  3.0935404145986049e-06  2.0052027109634188e-06  3.5031007134280976e-06  3.6115194734814602e-06  2.2628100085934309e-06  2.4255188367484502e-06  3.7086986494279552e-06  3.4864928768271590e-06  3.0463171220984581e-07  2.5379487751815529e-06  1.9762234213893683e-06  4.4225004383284215e-06  4.2123980829901825e-06  4.3647955174755894e-06  3.6552716062527577e-06  3.9623510359264879e-06  3.3926934829568741e-06  3.4504134041396850e-06  2.9552489984646803e-06  1.0420355319101974e-06  3.3133220092891370e-06  2.7815679192034962e-06  3.6614070228011196e-06  3.2948922375699372e-06  3.1740316101180308e-06  1.7058957850630704e-06  9.5820706696126572e-07  4.2293344003274305e-06  2.1370104149583177e-06  4.5398645747296934e-06  2.8089518164455180e-06  4.2563076749378551e-06  3.4017899754508226e-06  1.3201560743198002e-06  4.5104398239470762e-06  2.8785138527132266e-06  4.2470216116269618e-06  3.4364175571452457e-06  1.7950705224779555e-06  1.8837954016047489e-06  4.2126719956924948e-06  3.5312442090369416e-06  4.1704355076797034e-06  4.3944744570948906e-06  4.4817630140365688e-06  3.4156805391673729e-07  4.2106692092887779e-06  3.5303037877725158e-06  3.7192785335531897e-06  3.1961484801974746e-06  3.3533834906967625e-06  3.6754757999414299e-06  3.6154295902807627e-06  3.8992661579888441e-06  3.9399588315838071e-06  3.8902229647848001e-06  3.5561192076552579e-06  4.0470703866395892e-06  4.1723147381982867e-07  2.7928907986155306e-06  1.5911956038563119e-06  2.8864346689059368e-07  3.4718487486814314e-06  4.3672221307115406e-06  3.8501541676160270e-06  3.1102852012949581e-06  3.6969655491741045e-07  1.7401419666967480e-06  1.2339419208748671e-06  3.8357830822434203e-06  2.7201633749080474e-06  2.2710609343748296e-06  2.0501362257845550e-06  4.5284557560311826e-06  3.1726211015558402e-07  4.0897533386598668e-06  3.0134065163120844e-06  3.8534895542847340e-06  4.0914862296999995e-06  1.4636122297011470e-06  1.1181694574493304e-06  4.3201464590488675e-06  1.4859483225664164e-06  3.7371468473421043e-06  3.2560885035584856e-06  2.3550118639668748e-06  3.5038211128649792e-06  1.5392085555764737e-06  2.2756546306899558e-06  3.4172031159166367e-06  2.1256943939118730e-06  2.8795073596859896e-07  3.4349948119805512e-06  4.4660732147069590e-06  4.6002152007552202e-06  4.2583011245372736e-06  4.2338049931471820e-06  3.9914482978887491e-06  3.2571752994844014e-06  3.7627011380477368e-06  4.4035099943910318e-06  4.4414803022772844e-06  4.2533572898305109e-06  4.3179075970519646e-07  1.6692700627748961e-06  3.7429301413892893e-06  4.0462848953094098e-06  4.2158516606346039e-07  1.5274259616395683e-06  3.6704235223742895e-06  3.6642393179285592e-06  1.9875643870133936e-06  8.8401071049182653e-07  1.3870812707503512e-06  3.4439655147535602e-07  3.1266364905999436e-06  3.2369784388208914e-06  4.5124437974421552e-06  3.1344803223220184e-06  3.1615876602245654e-06  3.5838449910509111e-06  2.2550737707394887e-06  4.2103433623944528e-06  4.2567001861151515e-06  3.6416413358668769e-06  2.1988913281829605e-06  3.9096235222092343e-06  4.2253762197547238e-06  4.2360457956802860e-06  3.6164032081223789e-06  3.6502469533498642e-06  4.5404311982357509e-06  4.0453807227820702e-06  4.4957760052745559e-06  1.8919533426112969e-06  3.5933229906753480e-06  2.7309310954897077e-06  2.4995900874514973e-06  2.4045696254396915e-06  2.2056559010620120e-06  2.2588688547564355e-06  3.9276868586724909e-06  3.9895614975356444e-06  2.6250244776914898e-06  4.3497063481629147e-06  3.4777618379935437e-06  3.2851676943106153e-06  4.5544589704243553e-06  4.4250832623376958e-06  4.1907396969290388e-06  4.4101727284995257e-06  3.4027245429436395e-06  1.6140634719183744e-06  1.6306240584680447e-06  3.2899533023093018e-06  2.3545325175453039e-06  3.2947856248715369e-06  4.0244239002324189e-06  2.6478871380529521e-06  2.5131115551209578e-06  2.8923078299209122e-06  2.8334730579186988e-06  2.9912130283631528e-06  3.3180297263946605e-06  4.5726385039184578e-06  4.1810217304606759e-06  2.6261254922766908e-06  1.8935445729295544e-06  1.7486908031841133e-06  2.7318363151902770e-06  2.0998519483399128e-06  1.6541575296695594e-06  1.6417997193283361e-06  1.8711954580682810e-06  2.3204601565607120e-06  2.0088433379744518e-06  1.9344885093884590e-06  4.3651903297470476e-06  3.0716282642722135e-06  4.2577872481350014e-06  1.9222953498287457e-06  2.6904089813945191e-06  2.5093031501868089e-06  3.5318059232845906e-06  3.2165648965540806e-06  4.3277774847121196e-06  4.3127396428365389e-06  4.0324000162163591e-06  2.7352802599565742e-06  2.5450014781336527e-06  2.9494638252713850e-06  1.6758554435812486e-06  3.1463066082192796e-06  2.6694172789445946e-06  3.6700082864899495e-06  3.6637579129057139e-06  2.8054975506558189e-06  3.2408502680385698e-06  3.0172059423592443e-06  3.2711534670404390e-06  2.3876431171262281e-06  3.5509948391465439e-06  1.7922152717086551e-06  2.9299513411304650e-06  1.9117402622086555e-06  3.4474142463586694e-06  2.3677636535710825e-06  1.5795916619616571e-06  1.6507477298493663e-06  1.6153503367387579e-06  7.5125734343909898e-07  1.2921500609560980e-06  1.4696513713161853e-06  5.3436176456761469e-07  1.7901240686814080e-06  2.0520598831627367e-06  1.5966979939295559e-06  1.6599124098739984e-06  1.6323994262468496e-06  1.7063540850492413e-06  1.6615100944104913e-06  1.7087376721437465e-06  2.5251996751892489e-06  2.9286919013074977e-06  3.4529412266548601e-06  3.6352914374292089e-06  3.0425981538144195e-06  3.6536861666451395e-06  3.3820404128697025e-06  3.3065904183024221e-06  4.0707459515278914e-06  2.5722990920316884e-06  4.1349312456236379e-06  4.4221995701293848e-06  1.6663480736622633e-06  4.3805454383843062e-06  4.0473070314211702e-06  3.0754978560394094e-06  3.6468027818201598e-06  3.6039210125835243e-06  3.6543460879183835e-06  6.9256744083502519e-07  3.3355559475344336e-06  3.0021152502328842e-06  4.2444465339549734e-06  3.7652289920872356e-06  4.4786740353280736e-06  1.3799744072435700e-06  3.7847508085663165e-06  4.0660019540776151e-06  4.3213886925248054e-06  4.5898436389645026e-06  3.7958821808900107e-06  3.0828986898122813e-06  2.7808220844905979e-06  3.6952469434962431e-06  2.2920270244480334e-06  3.0485267733982999e-07  1.4706415530082042e-06  3.4794537379183469e-06  1.7407025851791706e-06  3.7002446929171652e-06  3.9514457747560889e-06  3.3683316806150100e-06  1.8043162016488626e-06  4.5624574394187157e-06  3.8691626833847224e-07  3.1420171250469848e-06  4.3753633795189262e-06  4.3039789316111814e-06  6.7218525482447485e-07  3.6749382596702167e-06  1.2940655757933859e-06  2.7737409074402171e-06  3.1255422455442926e-06  4.1966521842642905e-06  3.8697240346433250e-06  3.3452043946914256e-06  4.5444369749959978e-06  3.6174991707235582e-06  3.8093046067239206e-06  4.3289382302673382e-06  3.8827887539983093e-06  4.0313584799275797e-06  1.8353476753684469e-06  4.4044886218554762e-06  4.2393210445704503e-06  3.2719354571362238e-06  2.6323290710423181e-06  3.8531371519169515e-06  3.7820823287800128e-06  6.0801440217212354e-07  3.3941147866696828e-06  2.0697796896156777e-06  3.1496350255951929e-06  2.0715573943050263e-06  1.4036784577427006e-06  1.1407260252664717e-06  3.1521025643788480e-06  3.1884058710368214e-06  3.9764012047022304e-06  4.5326095893024479e-06  1.5315274182576727e-06  3.7517632842916059e-06  3.7334782660463129e-06  1.9266191116817623e-06  3.7846812434726454e-06  3.3744166885485790e-06  2.5496202052230662e-06  3.6048612332706057e-06  4.5414255833095181e-06  3.8093943681011004e-06  3.4416901550359726e-06  4.3748842828528264e-06  3.2103814252353981e-06  3.2767537821287930e-06  4.1836584879950379e-07  4.1756254262766376e-06  1.8046540239083275e-06  4.5007835647881060e-06  3.9703902639536711e-06  4.4377393779785610e-06  4.4847907398642059e-06  3.6308595539207214e-06  4.0574213957452197e-06  4.0064416292383030e-06  4.2788355334983142e-06  3.3843054900931738e-06  3.4182058813255556e-06  3.7506334269179158e-07  3.8823832444390302e-07  4.3255527674393856e-06  3.9462601037411416e-06  3.3230799859424878e-06  5.3997539115099538e-07  1.7600788266174374e-06  3.3691606931973332e-06  1.4154898443255896e-06  1.2869127643337217e-06  2.0928830555357445e-06  4.1029196015130415e-06  2.6081269998298130e-06  2.8973944105882807e-06  1.6230475404413258e-06  3.4560793950649125e-06  3.3493682645316895e-06  2.1388559860770522e-06  3.0254282541975897e-07  1.6722886318359692e-06  1.6344466088391427e-06  3.8176077909703315e-06  2.7425703477455515e-06  3.6719048113582692e-06  4.4058070296155763e-06  4.2010345820455869e-06  3.9725381581467478e-06  4.1710326322894864e-06  3.7608647075696202e-06  2.0581463630651652e-06  4.5389743087852060e-06  4.5835002664930953e-06  4.1794422370950599e-06  4.1430493074955687e-06  3.9987551949622612e-06  3.7987621994234705e-06  4.1297610296517459e-06  4.0598865042494258e-06  3.0023721832998364e-06  7.5499701064072180e-07  1.0133603999043954e-06  4.2080248979203218e-06  3.3186993037619241e-06  4.5444887375318033e-06  4.4715607132873523e-06  4.0138444286555707e-06  4.4790724980839926e-06  3.3245039609106867e-06  3.6144001711044827e-06  2.1441640387556977e-06  2.3095392605860415e-06  2.6886631178685452e-06  4.2723662019997543e-06  4.3836611538976009e-06  4.0336024480065291e-06  4.2732147446390238e-06  2.2620618576299735e-06  2.9101526309351104e-06  4.3997820939470387e-06  3.5812993964869303e-06  3.3991014730375049e-06  2.7991060816799616e-06  2.2210828812932939e-06  4.0760729759998832e-06  1.3519692653238882e-06  3.7997965620209264e-06  4.1499653238921635e-06  2.1464669421015697e-06  2.8002163935959825e-06  1.8438257734372664e-06  3.7293747855031801e-06  3.7351451411242426e-06  3.0762241984911700e-06  2.0703121844362102e-06  2.3820849744612877e-06  3.4323084859119770e-06  2.6690547806603628e-06  4.1558703690908992e-06  1.8319238323269967e-06  4.3678564653130923e-06  3.7537114692186134e-06  1.7441159938075140e-06  3.6635120347522720e-06  3.1199604734441030e-06  1.7616809307979417e-06  9.6267377877691542e-07  3.3027997592436757e-06  3.7383727084242531e-06  4.0665989165233266e-06  3.8204313668802319e-06  1.6531969464944468e-06  4.3252867557490179e-06  3.6919191019200602e-06  4.2882554371622442e-06  3.1405475639561779e-06  3.5597522597749258e-06  3.5862413989850871e-06  4.0932503293368938e-06  4.1619934091489485e-06  4.1382939978855297e-06  3.7053899952141506e-06  1.5389341197129957e-06  4.5979335275771562e-06  3.0292373149357869e-06  3.2157610626824678e-06  2.8238077996215557e-06  3.2265002596427965e-06  1.6523457200272455e-06  1.7280033308258241e-06  3.4472457880042092e-06  6.0526341784549867e-07  1.4290012846050894e-06  5.0822797460624118e-07  8.6706531382896233e-07  1.5232100225750424e-06  3.1394128794054558e-06  1.5243854100945740e-06  3.8989151974342120e-06  4.2186685104130398e-06  3.1222547592692031e-07  3.0840524427477119e-07  3.5513088688951332e-06  3.3384403506163665e-06  8.5456233190188498e-07  4.0754242874267467e-06  2.9061623819909579e-07  2.5203723765736596e-06  2.7498407211276136e-07  4.3329355238794623e-07  7.9467207210757690e-07  9.8756129964815934e-07  4.2476831625301119e-06  4.2291346903120454e-06  2.2769687596790890e-06  4.4738719585725491e-06  4.1302631400281933e-06  4.4275608780839074e-06  3.4261741393811117e-06  3.3759446515309021e-06  4.4477151849534396e-06  4.4356641925974169e-06  1.6708707576909346e-06  3.4118325345033660e-06  3.7557880237405566e-06  3.6538649293671587e-06  1.7075671310969455e-06  2.4009950129552229e-06  3.4508057568311763e-06  4.2783499337547775e-06  4.2041397165864896e-06  2.6461916960529003e-06  3.7898737794593449e-06  4.1815860232934272e-06  1.6838575343375511e-06  4.2952088286119282e-06  1.6066198949938699e-06  3.4485174753435130e-06  3.6167928314074086e-06  2.1578040119030728e-06  4.4109167753099844e-06  3.8623024341187