<?xml version="1.0"?>
<VTKFile type="UnstructuredGrid"  version="0.1"  >
<UnstructuredGrid>
<Piece  NumberOfPoints="2446" NumberOfCells="4585">
<Points>
<DataArray  type="Float64"  NumberOfComponents="3"  format="ascii">0 0.41 0  0 0 0  2.2 0 0  2.2 0.41 0  0.2404508497187474 0.2293892626146237 0  0.25 0.2 0  0.2404508497187474 0.1706107373853764 0  0.2154508497187474 0.1524471741852423 0  0.1845491502812526 0.1524471741852423 0  0.1595491502812526 0.1706107373853764 0  0.15 0.2 0  0.1595491502812526 0.2293892626146237 0  0.1845491502812527 0.2475528258147577 0  0.2154508497187474 0.2475528258147577 0  1.1 0 0  1.1 0.41 0  0 0.205 0  0.55 0 0  0.55 0.41 0  0.275 0 0  0.275 0.41 0  1.65 0.41 0  1.65 0 0  0.8250000000000001 0.41 0  0.8250000000000001 0 0  1.375 0 0  1.375 0.41 0  1.925 0 0  1.925 0.41 0  1.5125 0.205 0  1.7875 0.205 0  0.6875 0.205 0  0.9625000000000001 0.205 0  1.2375 0.205 0  2.2 0.205 0  0.4687002074688797 0.2068568464730291 0  1.99375 0.2152743902439024 0  2.0625 0 0  2.0625 0.41 0  2.2 0.3075 0  0.4125 0 0  0.4125 0.41 0  1.7875 0.41 0  1.375 0.1486128048780488 0  1.5125 0 0  1.7875 0 0  1.5125 0.41 0  0.8250000000000001 0.2613871951219511 0  0.9625000000000001 0.41 0  0.9625000000000001 0 0  0.6875 0.41 0  0.6875 0 0  0.1375 0 0  0.1375 0.41 0  1.2375 0 0  1.1 0.1486128048780487 0  1.2375 0.41 0  1.65 0.1486128048780487 0  1.126715909090909 0.2793064024390244 0  1.676715909090909 0.2793064024390244 0  0.8517159090909092 0.1306935975609756 0  1.348284090909091 0.2793064024390244 0  0.34375 0.3032389320646208 0  1.894702181800738 0.1282910975492754 0  2.092797818199262 0.1282910975492754 0  1.85625 0.3075 0  0.61875 0.3075 0  0.61875 0.1025 0  0.3648540804333487 0.1240075933101478 0  0 0.3075 0  0 0.1025 0  2.099172119769978 0.25625 0  0.48125 0.09238439620688085 0  0.5781001037344399 0.2059284232365146 0  0.48125 0.3196743479159776 0  0.7265881057911006 0.3055240343720796 0  1.99375 0.08395950269330846 0  1.459960956013612 0.3075 0  1.569025960719943 0.2986889805672169 0  0.75625 0.08213100772579164 0  1.03125 0.3278689922742084 0  0.923871252904788 0.3078247185783941 0  1.959375 0.3126371951219512 0  1.749222215368287 0.1025 0  1.275777784631713 0.1025 0  2.2 0.1025 0  1.225938124459196 0.3075 0  1.550777784631713 0.1025 0  1.000777784631713 0.1025 0  1.44375 0.07430640243902442 0  1.16875 0.07430640243902437 0  1.899250267340833 0.2229966846119207 0  0.1020898364287272 0.3140258291809757 0  1.766482954545455 0.2934032012195123 0  0.3405058858996321 0.2119987970531874 0  0.7710785630958338 0.1710968191298857 0  1.046078563095834 0.2389031808701144 0  0.2 0.3400647632937836 0  1.421109702350723 0.2261157654379721 0  0.2800464974185557 0.08982544815605742 0  0.098916018031319 0.09171660955420841 0  2.13125 0 0  2.118919042110979 0.3422084711244843 0  1.30625 0.41 0  0.89375 0 0  1.597888256393107 0.2173787389261347 0  0.20625 0 0  1.829299675393195 0.07400700849299596 0  1.71875 0.41 0  1.16875 0.41 0  2.038220665644273 0.332420740103091 0  0.34375 0 0  0.417496017710808 0.2696595573092803 0  0.2 0.07687845740457822 0  0.9295982307099278 0.1343158415898188 0  0.07390688010811153 0.1697064032433452 0  0.5238366813727013 0.2578302467013575 0  0.05452951551825875 0.25625 0  0.5229630068078351 0.1548816096928243 0  1.452769549894695 0.1548122580621249 0  1.369219062229598 0.07430640243902442 0  1.30625 0 0  0.8504409521244898 0.3356935975609756 0  0.8821881244591965 0.205 0  1.720943423819132 0.1714577452753128 0  1.157188124459196 0.205 0  1.094219062229598 0.07430640243902437 0  1.03125 0 0  1.304056576180868 0.1714577452753128 0  1.67579304192913 0.07430640243902437 0  0.2751941921308361 0.3346083473122598 0  1.209670467133757 0.1362100266964769 0  1.025335513626278 0.1700681449722324 0  0.7562500000000001 0.41 0  1.58125 0 0  0.7567170593862014 0.2409196493502535 0  0.6926714215682891 0.1272249611432207 0  0.4139715849905988 0.3397932387114203 0  0.9840787304190477 0.2717749043358119 0  0.06875000000000001 0.41 0  0 0.35875 0  0.9281250000000001 0.06276726142697993 0  0.5507396469029935 0.3219409231578227 0  0.5504468037989405 0.09136885600634273 0  1.58125 0.41 0  1.631724228912893 0.3381867502687533 0  1.825608881788174 0.14499488549201 0  1.85625 0 0  1.44375 0 0  1.44375 0.41 0  1.85625 0.41 0  2.13125 0.41 0  0.7562500000000001 0 0  0.89375 0.41 0  0.4812500000000001 0 0  0.34375 0.41 0  0.4812500000000001 0.41 0  0.20625 0.41 0  0.06875000000000001 0 0  1.16875 0 0  0.61875 0 0  0.61875 0.41 0  1.03125 0.41 0  1.71875 0 0  1.99375 0 0  1.99375 0.41 0  1.340625 0.3489494290853124 0  1.134375 0.3489494290853123 0  1.700180620188976 0.3438659752031281 0  2.135782184673599 0.07126652247502523 0  1.668441847249787 0.2129203728327609 0  1.295782514339747 0.2378437748815763 0  0.8233075729931248 0.06842334294821524 0  1.409375 0.3520314716057996 0  0.403505597322782 0.182067236678212 0  0.378125 0.05794951541303489 0  0.3043468223249023 0.1518321115979534 0  2.129248544730567 0.1906135162504124 0  2.060771381434487 0.1989445750470348 0  2.013252586573865 0.1496169464686054 0  1.942766402200229 0.1734448904596831 0  1.895522487186454 0.06076163953489683 0  2.069553871656643 0.06605731020975725 0  1.274680914880868 0.3520219391081363 0  1.614713220494657 0.09473434380863296 0  0.7899021319497519 0.3149123934144827 0  0.69518737419149 0.0634051089053758 0  0.2971740475496061 0.2592172353407536 0  1.72990325744076 0.2380068107952482 0  1.356580098625191 0.2120393231351682 0  2.034370752044885 0.2668681600792073 0  1.51768709249349 0.3426260931494756 0  1.561883724969884 0.1650446847858835 0  1.197344062229598 0.2523725417393646 0  1.804085235518364 0.3468178408964637 0  1.817887819205233 0.2589243285818559 0  1.905897727272727 0.3485060975609756 0  0.6719798073392919 0.2688965171178177 0  0 0.05125 0  0.653125 0.35875 0  0.6396896119294488 0.1627615407790282 0  0.4274150154087412 0.1242548552168279 0  1.192836486056382 0.3562350748565544 0  0.8279124365364005 0.183856489168822 0  1.097485222388854 0.2083571153401724 0  1.28257088594801 0.2944411014911587 0  1.474860187679412 0.2504218616229368 0  1.406767003493824 0.2829282258560709 0  0.446875 0.04619219810344041 0  0.515625 0.04585361801037557 0  0.592043440706648 0.05125 0  1.845656689180403 0.1998310418452388 0  2.144958525570388 0.2909790873294231 0  0.6171090763650112 0.2492366900333857 0  2.2 0.15375 0  0.5145586920831158 0.3648371739579888 0  1.57794966442982 0.3540357145964566 0  0.721875 0.3633107922168974 0  0.0496154796471391 0.333125 0  0.5843750000000001 0.3662560860076676 0  0.5810878747760798 0.1474002776121195 0  1.508991196088596 0.1421783375065625 0  0.8840670607017558 0.2640994375393898 0  0.09776612425612034 0.2204896805326566 0  1.50436820029908 0.06143401634903343 0  1.223857000523521 0.0823554862453532 0  1.153316824384777 0.1289850171317837 0  2.148922302309752 0.1258841779285271 0  0.309375 0.04312325590431198 0  1.621993280276081 0.2841214267927899 0  1.550118654119087 0.2461998729100966 0  1.327182649291491 0.1216967252533594 0  1.051977450479407 0.1221382572915816 0  1.753125 0.04556020050186112 0  1.271875 0.04556020050186116 0  0.9816084133102366 0.05126138213476004 0  1.039051841454368 0.0572224914831029 0  0.9719230514536006 0.3480477870845102 0  1.94956388244759 0.1180512551534177 0  1.949997712993411 0.04965831614304109 0  1.771961817615021 0.1530278789497521 0  1.909246823951428 0.2812757146784527 0  0.2459536687882397 0.04668633953831142 0  1.948575539857022 0.2445328248721197 0  1.697271520964565 0.1233917627620729 0  0.7964897648514618 0.1211426571931604 0  1.065625 0.3689344961371042 0  1.085849084308977 0.3170853572226867 0  0.4702981435440001 0.260434880697798 0  1.577403511714593 0.05463601888079143 0  0.05622663515370135 0.05493816910862376 0  0.3267207591099919 0.3566194660323104 0  0.9003051618565143 0.3564049499960621 0  1.751571320346033 0.3651102912045228 0  0.1583785085108421 0.2994699345738728 0  0.1455283439499995 0.3542795598723423 0  2.2 0.35875 0  0.2347662494194072 0.298325008655211 0  0.1527284455616188 0.1065771775690181 0  0.1382139529076665 0.05427454456341477 0  0.8749341636311069 0.05110114999892954 0  0.643661668713109 0.05693499781019222 0  1.466879772203159 0.3611261772912453 0  1.990280163552011 0.3564754268533217 0  1.17471064520912 0.2990917256188288 0  0.5202693090594349 0.206382495511728 0  0 0.25625 0  2.2 0.25625 0  2.2 0.05125 0  0 0.15375 0  1.853978576207987 0.35875 0  0.9787513713939683 0.1487523696999336 0  0.240625 0.3722153812029779 0  1.515638456102889 0.2882700110184686 0  0.09048297387599738 0.3637717362208066 0  2.150453692751374 0.2387066338105111 0  1.323782677156475 0.04897634338873398 0  0.8074131292871642 0.3624701995505916 0  1.409375 0.03715320121951221 0  1.406484531114799 0.1087852750766809 0  1.134375 0.03715320121951218 0  1.627401732573545 0.04552157221025036 0  0.1170173172005315 0.1427610859166811 0  2.045405893604797 0.1105340662939892 0  1.255408269734577 0.1577307500159216 0  2.028125 0.03707597992059326 0  0.4743610090857199 0.1421513964721819 0  0.9354010469015898 0.250631300585664 0  0.04420832937638274 0.128125 0  0.8922386349349938 0.0992956419364831 0  0.1197849154434487 0.2663398672460083 0  1.248258025468107 0.2565907092181813 0  0.3746885856929528 0.370723531618974 0  1.203125 0.0366132337404304 0  0.5724622277005015 0.2751253816079333 0  0.3365425205162783 0.08395777655057959 0  2.072662025974815 0.2975086504196739 0  0.4581080832182547 0.3648371739579888 0  0.3874522734668214 0.2295447548840689 0  0.7827853612484443 0.04106550386289586 0  1.887722846421017 0.1760882698830035 0  1.472640588990488 0.1118278026240017 0  1.865937103925594 0.2604137786483804 0  1.463913572748262 0.2030442564990043 0  1.376426316059077 0.3186741374914345 0  0.6641993820150034 0.3141688596240831 0  0.2943117490824315 0.2130987422685822 0  0.3478153998082709 0.1666571081082676 0  0.3427990510599805 0.2575950027870776 0  0.7997118993855807 0.2216171933356366 0  
[...]
<PointData  Scalars="f_10-2"> 
<DataArray  type="Float64"  Name="f_10-2"  format="ascii">5.5421011871292650e-08  9.4670766066395167e-08  1.6851338726479027e-06  1.5786754475778641e-06  1.2176147231901938e-06  1.6621466835850215e-06  1.1818111813097854e-06  4.7613762213254465e-07  2.2355806373453658e-07  1.4686853334141459e-07  1.2319952764843691e-07  1.4979977149365178e-07  2.3143659088401248e-07  4.8101768306937032e-07  1.7826093133802724e-06  1.4484410236837824e-06  8.0563653931053472e-08  6.5116472413483976e-07  5.3521995681921559e-07  5.4756460791598301e-07  4.2598156272161030e-07  2.2399651549392703e-06  2.5267189752117784e-06  8.9814434596482120e-07  1.1543463807137167e-06  2.2562521702709894e-06  1.9222057204801635e-06  2.4386072502749686e-06  2.2254147607806019e-06  3.4975736850584562e-06  3.3837527383785712e-06  3.0077836027491031e-06  3.3980046196351242e-06  3.5155526448306992e-06  2.4927991765225597e-06  2.2384604327408191e-06  3.1034848088050053e-06  2.1289446009852663e-06  1.9668099013298708e-06  2.0898794120348456e-06  5.9734488025083604e-07  4.9691314328878242e-07  2.2962783439209495e-06  3.3347069383230931e-06  2.4218340039680295e-06  2.5495089731136970e-06  2.1051410944877959e-06  2.6278910593039448e-06  1.1726849962755578e-06  1.4784208532861598e-06  6.6600110189383165e-07  8.4852972811486112e-07  3.1997491550631925e-07  1.9956904550529857e-07  2.0473242658819689e-06  3.2256428190669534e-06  1.7039844312723716e-06  3.3287495973923578e-06  2.7618975190238391e-06  3.0308405989786766e-06  2.6687741828264127e-06  2.9348084565794040e-06  6.6587960387786280e-07  3.0793602617320481e-06  2.6810041761030756e-06  2.7704967529317384e-06  1.2462409012965376e-06  1.5070958934929395e-06  8.1794832201510958e-07  6.1733970539576093e-08  8.2616234654501596e-08  2.6950093137095208e-06  9.0622577619195758e-07  2.6815030998346883e-06  7.5963786536976369e-07  1.5821796184059482e-06  2.6755357588454960e-06  2.6736699029041117e-06  2.8273241597475575e-06  1.5893642278863396e-06  1.8744810321309160e-06  1.9913531155426626e-06  2.6456277009810092e-06  3.0050553178853348e-06  2.8108916166947565e-06  2.1920535223538805e-06  2.4567743192137026e-06  2.9805295683909114e-06  2.4669944066206813e-06  2.6641930482812916e-06  2.3407576075061794e-06  3.2378755833512015e-06  2.0730973080626355e-07  2.9087666933998917e-06  1.6208356289437968e-06  3.0624405475550678e-06  3.2312683055186120e-06  4.9294233126282628e-07  3.4417916653006653e-06  5.7981241864417754e-07  2.3618641701282739e-07  1.8855385703364753e-06  2.1176488482199152e-06  1.8192027367589185e-06  1.3162930780491407e-06  3.4465130018141410e-06  4.6778672318349911e-07  2.7972675476878543e-06  2.2821409838144720e-06  1.5796926786407789e-06  2.3837616096905609e-06  5.8400878194074753e-07  1.0779206343035954e-06  5.1884925561737051e-07  2.8589328064638692e-06  8.5391617797585468e-08  1.7720283973810525e-06  7.5408627091895353e-08  2.0515058215988663e-06  3.3850508486638337e-06  2.5940076097888880e-06  2.1520540546405827e-06  1.4028689140190693e-06  3.3335091478561383e-06  3.3970066126311307e-06  3.5006821970088937e-06  2.2226133234120682e-06  1.6400639617833295e-06  3.4707691255490235e-06  2.8033980443622970e-06  5.6103475524734863e-07  3.1590395393767091e-06  3.3656843664791382e-06  7.6896877723015695e-07  2.4844733159781960e-06  2.8235348179386283e-06  2.2113784288012438e-06  5.9583992878715986e-07  2.7137448440744389e-06  8.4803838191763142e-08  5.4792020145219304e-08  1.7463415688392668e-06  8.8320674487200716e-07  1.1051639450249862e-06  2.1792360472524474e-06  2.5019531955728006e-06  3.2303364539652696e-06  2.5147289782732538e-06  2.3412764871975174e-06  2.0207528929155956e-06  2.2860935212958264e-06  1.7569591129607630e-06  9.9191065678389478e-07  1.0273457784701631e-06  6.1042620128897522e-07  4.7482048078714550e-07  5.0933612144968025e-07  3.3178981850180779e-07  1.5076782329361083e-07  1.9246697597909332e-06  7.3212696075711152e-07  5.8765936231199746e-07  1.3072754120141409e-06  2.5495907415246102e-06  2.3039641664296783e-06  2.1275350047315445e-06  2.1136251231117615e-06  1.8000852949223771e-06  2.4968145207021095e-06  2.2172872258656597e-06  3.4333328802613292e-06  3.3521598152960993e-06  1.5638991334377378e-06  2.1820146527784934e-06  1.8278322167714631e-06  6.2713145661175755e-07  9.2963521077863397e-07  2.7367363640503080e-06  2.9596483432694515e-06  2.9855811418266236e-06  3.1914156943629109e-06  2.6784519889685243e-06  2.3956215857006113e-06  1.9977119410942231e-06  2.9372025353410870e-06  1.5788683837605045e-06  1.1735200649044169e-06  8.2506742752654453e-07  3.3110980944119553e-06  3.5034140101812257e-06  2.8133731422125178e-06  2.3737593377390657e-06  3.4275147806932232e-06  3.1753934308771977e-06  2.5039614754158891e-06  3.1461545553635161e-06  2.4617429860684499e-06  2.1086864408339223e-06  8.6890057964500986e-08  7.6006394564660643e-07  2.6390332722596893e-06  1.0519201675426818e-06  1.8291398679196676e-06  3.2499276890900002e-06  3.4818710078953609e-06  2.6938959568984554e-06  3.2725364600351558e-06  2.9235079949295696e-06  6.3674665091765729e-07  6.9440211136657109e-07  8.2918063608545429e-07  3.3381490470485579e-06  2.3578269516881602e-06  2.2974417874585479e-06  2.4221742591878073e-06  5.7483825815970781e-07  2.3447370349910430e-06  8.4735815037196748e-07  6.6490470040692845e-08  6.3023346660549110e-07  2.1777126929391277e-06  3.3007088780399645e-06  2.6862012033886941e-06  8.9802747236429020e-08  2.6168495101393394e-06  2.5128097208416844e-06  3.0345240549135836e-06  2.4766514900055904e-06  5.8489033091417690e-07  2.9849227214937251e-06  3.3057854976140802e-06  3.0662029450956071e-06  2.8423519150586353e-06  2.6557865525483979e-06  2.2311689523459172e-06  1.7358743405448172e-06  1.9211159278587965e-06  1.5031045559998548e-06  2.9509870622387685e-06  2.5549290591864615e-06  3.3039471895407545e-06  2.9235882653581170e-06  5.4993611230370974e-07  3.0891087909403748e-06  3.1591939884605987e-06  2.3814422644560436e-06  1.4978125112126951e-06  2.1281609271102507e-06  1.4707799594404413e-06  2.6310690821682885e-06  1.1300316370382383e-07  5.2750028458161984e-07  1.2626174944243279e-06  2.3932769265779937e-06  4.0510759175967362e-07  3.1529866654495384e-07  1.7761516330686186e-06  5.0282388532121862e-07  3.7803891508594547e-07  3.8329399953717722e-07  1.4841395342873828e-06  9.7717766721292918e-07  2.1844349359554781e-06  2.3213982247952630e-06  2.5182022678646260e-06  2.4696986590742731e-06  7.3155742919476182e-08  2.3637514490004550e-06  1.8918590332170632e-06  8.3416994120006837e-08  2.4305039379241744e-06  3.1186119641785362e-06  4.3278932555685745e-07  2.9125776510599562e-06  1.1836276852564434e-07  2.5875185620150585e-06  2.3282274596605855e-06  1.0185837524700675e-06  2.3763526856711877e-06  2.9739328905648051e-06  1.9420878086046988e-06  2.6142344253866338e-06  1.8177629045827428e-07  2.7199822770110341e-06  3.3795998751790004e-06  2.3440889632998899e-06  1.5731925800261236e-06  2.9729662585160294e-06  8.8220376127371222e-08  2.2098318400096531e-06  2.1528178643937963e-07  3.1508762669372147e-06  5.1551437955259428e-07  2.0693000772807012e-06  1.6432880979409646e-06  6.3687293231484094e-07  2.5351051630789332e-06  5.4902231216663806e-07  1.5857088874716682e-06  1.1758230098804022e-06  3.2760435573608500e-06  3.0339227838075409e-06  3.1007489475892529e-06  3.5130710653543772e-06  2.4734498991926413e-06  1.2685560261863970e-06  1.5696135611233942e-06  1.2824268612163232e-06  9.2484573912886053e-07  3.1281383802019234e-06  3.0011494188658687e-06  3.2380692243121754e-06  2.1255091383261739e-06  2.9328884741914360e-06  2.3093980778521977e-06  3.2938097759370748e-06  2.6100057890814059e-06  3.1001801975241881e-06  3.5259740967322602e-06  6.2087923028765599e-07  2.0536228244008519e-06  3.2883236935726182e-06  2.8705973428515167e-06  2.6614147610174342e-06  2.8221675491860116e-06  8.0124298849671566e-08  2.9427092798447825e-06  2.0391884900163268e-06  1.8682811947998987e-06  2.1102205490265401e-06  2.1405207579351687e-07  1.0634279570102196e-06  2.2116949170967761e-06  3.0631030256676011e-06  2.6522027567773616e-06  4.0277304592871888e-07  3.2922232888998863e-06  3.4982409550842046e-06  2.3827645546102718e-06  3.4703583354270825e-06  2.1454917501343961e-06  9.5949784350750084e-07  2.5403829385978676e-06  2.6410477389029341e-06  1.2427890921762612e-06  1.3946507189141744e-06  1.9122340761218279e-06  1.7871654179861685e-06  6.1145812025905103e-08  1.5228289100687656e-06  8.9937062647357430e-07  3.3417145880358351e-06  3.1457900503684679e-06  3.3236878740256358e-06  2.6451658990153086e-06  2.8986082367698385e-06  2.4537341112412982e-06  2.3148708213112431e-06  1.9633070294065753e-06  4.2954272249757044e-07  2.2923017997107525e-06  1.8191924071325879e-06  2.6690974869721715e-06  2.3357500948215734e-06  2.1684812707907625e-06  7.0717346337504413e-07  2.7057465381201085e-07  2.8905200867114500e-06  1.1040714913659320e-06  3.4873696076771658e-06  1.8117726681746524e-06  2.8274225459313459e-06  2.4546793079835607e-06  4.6857354049562502e-07  3.4329526447816117e-06  1.9263557145960482e-06  3.2114753279803899e-06  2.3352781338669438e-06  7.1183432890418503e-07  7.7603736449658807e-07  3.1300980225588276e-06  2.5281019544721354e-06  3.0708084298433283e-06  3.3068983753717778e-06  3.4125453807872144e-06  9.6362712814541797e-08  2.5762589419969919e-06  2.5045224308392129e-06  2.4644600611488018e-06  2.1047296397344606e-06  2.2615341348251890e-06  2.6169993914336052e-06  2.4844153882310877e-06  2.7739950784445942e-06  2.9479660067113604e-06  2.8992148647656588e-06  2.5976934598180778e-06  3.0484395706445883e-06  1.0622078532276599e-07  1.7167068504091250e-06  6.2287437783376874e-07  5.7884173049583214e-08  2.1561840289451527e-06  3.3295942568095553e-06  2.8012531533716509e-06  2.0441422269118658e-06  9.7326437749569979e-08  7.1195314095494323e-07  4.6663577633273818e-07  2.8301507777043423e-06  1.7038701690052165e-06  1.2288409228019481e-06  9.5125753559039341e-07  3.4789175392482417e-06  8.2871578884090182e-08  3.0139175001860982e-06  2.0011158074728304e-06  2.5397646699348659e-06  3.0509306193414179e-06  4.6621795785684996e-07  3.4102003110265523e-07  3.2737339198819485e-06  4.5441406352220431e-07  2.6989439087024513e-06  2.2649506836669837e-06  1.3673396032010414e-06  2.4851075899842100e-06  7.0681143877900449e-07  1.1717157497888441e-06  2.3514374057521527e-06  1.0702164939952340e-06  6.7137084525412527e-08  2.4906235165843342e-06  3.4137733996246084e-06  3.5244254367896507e-06  3.2315982876231803e-06  3.1978342005258551e-06  2.9823782071448374e-06  2.3089043551844667e-06  2.7397472776870107e-06  3.3684381049898532e-06  3.3912788803895980e-06  3.0650913595635346e-06  1.3356206678270587e-07  5.8210258200933669e-07  2.7332027425807981e-06  3.0203587502256123e-06  1.2015921853316701e-07  5.4165664230940238e-07  2.6774925327327655e-06  2.6753690869986511e-06  9.6490554644710832e-07  3.5358454497425151e-07  6.5715823537931654e-07  8.5694105702415819e-08  2.0767866733245754e-06  2.2820255164488743e-06  3.4676796319242508e-06  2.1777887232286451e-06  2.1373387004359929e-06  2.5361541506707280e-06  1.1641335768686980e-06  2.8742100822274985e-06  2.9905088636343867e-06  2.6539731142569733e-06  1.4074628673640333e-06  2.4730227616636276e-06  2.7468710977638492e-06  2.6038036239749562e-06  2.6206057706197921e-06  2.6865972188548368e-06  3.4491127532608541e-06  2.9977814685006316e-06  3.4134389012085575e-06  8.8550597616482298e-07  2.6216435248845713e-06  1.7044837131824467e-06  1.5287560594725487e-06  1.4296667842388502e-06  1.2338526070123691e-06  1.2766741162686188e-06  2.2392884483339427e-06  2.4644475056109491e-06  1.6601794600973239e-06  3.1825830850106305e-06  1.9508431157001463e-06  2.1825795057246144e-06  3.4712055118862367e-06  3.3294334157365121e-06  3.1212546448561270e-06  3.3505188540342628e-06  2.3201953976299981e-06  6.0461774869730908e-07  5.2122460521657783e-07  2.2743187630773603e-06  1.5124506477005635e-06  2.2168506116198994e-06  2.9657322166000621e-06  1.6437068117145520e-06  1.5156427903732139e-06  1.9076356121294747e-06  1.8661729628608192e-06  2.0143757099840130e-06  2.2709307230786969e-06  3.5141629560112990e-06  2.6693094159496937e-06  1.6394519031128473e-06  8.3314877533515783e-07  6.3053033682143601e-07  1.8128266081805550e-06  1.1962920284342702e-06  6.1425781348875861e-07  5.9166539147425535e-07  7.4924876758346863e-07  1.2102144302600712e-06  8.9253932860403759e-07  8.2404562273947011e-07  3.2854453057524916e-06  2.1185442018033450e-06  3.1611354471500231e-06  9.0907428635176263e-07  1.6903619022030971e-06  1.5003591909203486e-06  2.5217056534910093e-06  2.2604229267020797e-06  3.1093967423697630e-06  3.0332276492508300e-06  2.8851392992912341e-06  1.7584313265218918e-06  1.5367435311917012e-06  1.9931494113408221e-06  6.3609414333111076e-07  2.2073812330317534e-06  1.7158583982623740e-06  1.7563160884290808e-06  2.0069085296424844e-06  1.8564597131957519e-06  2.3036861500817569e-06  2.0645640688680239e-06  2.2934511709656606e-06  1.3793604331941997e-06  2.5574344488659483e-06  7.1646354839773613e-07  1.9706335179129509e-06  9.1913850861729522e-07  1.6464853060463762e-06  1.4030743220729740e-06  4.8808199344938395e-07  6.0135260304843693e-07  5.0240850208899529e-07  2.2882600849719486e-07  3.8536666854169477e-07  5.1367185220116102e-07  1.3203588148500767e-07  7.8415127502204711e-07  1.0710185541461710e-06  5.7004504922321805e-07  5.5554268802410441e-07  5.1865930885939941e-07  6.8485974174461922e-07  6.2420264926925014e-07  6.1835065175609338e-07  1.5663610622689486e-06  1.9837879894273598e-06  2.5066271157849459e-06  2.3768546761011090e-06  2.1010176056773978e-06  2.2213575770272298e-06  2.1781976572233614e-06  2.3415632608474034e-06  2.8227743946920183e-06  1.5677322890006575e-06  3.1200240591757177e-06  3.3607889924819342e-06  7.0487563856580133e-07  3.3129917501205987e-06  2.9921784527306986e-06  2.0460648577951315e-06  2.6483868449399686e-06  2.6024207204787240e-06  2.5231923928910390e-06  2.5232521165314851e-07  2.3448674554074775e-06  2.0371043385833416e-06  3.2107421817467917e-06  2.7002307980040697e-06  3.4300752508600067e-06  5.5060501221334911e-07  2.6943515718122514e-06  3.0224383227971829e-06  3.2833782109321506e-06  3.5163014431498494e-06  2.6991374185974345e-06  2.1249680042873580e-06  1.6933669681100774e-06  2.6208982445719143e-06  1.2615357079927526e-06  7.7475469854717685e-08  5.7177338671676361e-07  2.5327158788927051e-06  6.3788701776201263e-07  2.2398553046163956e-06  2.5152862964627054e-06  2.3622164699497483e-06  7.1295458253671045e-07  3.5010366294838449e-06  1.1309838826373279e-07  2.1249142708425103e-06  3.2415272144876039e-06  3.1834217730714417e-06  1.8122483558314832e-07  2.2878536709531226e-06  4.8296768171996958e-07  1.6659246602370160e-06  2.0211341075764645e-06  3.0977255061824280e-06  2.5991884293291311e-06  2.3458872373042763e-06  3.4534875265635110e-06  2.5980687718994182e-06  2.8086899809993167e-06  3.2565861553221369e-06  2.7102377768461238e-06  2.4043899799149984e-06  8.4730176558906522e-07  3.3284569118120539e-06  3.2228657811760269e-06  2.2467674379522270e-06  1.5732747447584258e-06  2.8727661481128153e-06  2.8077645099864863e-06  2.2558450537393341e-07  2.3013133935083456e-06  1.1731854114170161e-06  2.1970003592081995e-06  1.2463728959757835e-06  6.4307272042239846e-07  3.8738100878872142e-07  2.1328992334632051e-06  2.2356899196013023e-06  2.9431375090725097e-06  3.4841552641369876e-06  5.8012959821761374e-07  2.7592012891088303e-06  2.6989580359582351e-06  9.2694078034504298e-07  2.7145233433870082e-06  2.3188885730195342e-06  1.4452964802635646e-06  2.4931914263639715e-06  3.4730369385113483e-06  2.7659342140459031e-06  2.4983882675813115e-06  3.3119711289455337e-06  2.2175707801898498e-06  2.2423212529116176e-06  1.3186582392005406e-07  3.1426137547732406e-06  7.8851322866189354e-07  3.4224132494377980e-06  2.9066572883477351e-06  3.3530030378029570e-06  3.4416660161474985e-06  2.6633159435286751e-06  3.0237232014177712e-06  2.9609727552394614e-06  2.8582387760724900e-06  2.4423789477658157e-06  2.2179524740291286e-06  9.1916288120275012e-08  9.7151384664778202e-08  3.2996552025248685e-06  2.8553530905630483e-06  2.3043532792319010e-06  1.6947590621740075e-07  6.4015789430039374e-07  2.3941485023391931e-06  4.9929861110385669e-07  4.0585623721784037e-07  9.8934858838373670e-07  2.9076496021820296e-06  1.5660166796273238e-06  1.9219143170588081e-06  5.7673692277494432e-07  2.4753320152277507e-06  2.3248929296362209e-06  1.0976069912429048e-06  7.6298781440888617e-08  7.1532844336116236e-07  5.9655382508958933e-07  2.3129428729576783e-06  1.6452281230982334e-06  2.6405373675419898e-06  3.3264917730648895e-06  3.1887913417550220e-06  2.9056206447794136e-06  2.4509033531129767e-06  2.6882524338000293e-06  1.0427842052234049e-06  3.4613933324065203e-06  3.4991995290919388e-06  3.1133488650840926e-06  3.1173073763593023e-06  2.9374824247698213e-06  2.0637483820514435e-06  3.0380610764174801e-06  2.7312439575027089e-06  2.0132093862892054e-06  2.2319233094688316e-07  3.3886468877658232e-07  3.1121750972021772e-06  2.2310465977869494e-06  3.4774300955077543e-06  3.4120597044560606e-06  2.9815546319839518e-06  3.4231484735913042e-06  2.3816241811847380e-06  2.5730526767853717e-06  1.1608592627524632e-06  1.3028281847098344e-06  1.6409016812336950e-06  3.1868400059195338e-06  3.2925266693489152e-06  2.9877846439204676e-06  3.2195934929131733e-06  1.1774732354731898e-06  1.9440284742367983e-06  3.3036275561899607e-06  2.4927370878907901e-06  2.3004712706158129e-06  1.6929419578103433e-06  1.1246202664498040e-06  2.3199584074914936e-06  4.8168815053738870e-07  2.7480613131665044e-06  3.0856765761551909e-06  1.0815906247946309e-06  1.8169015333921954e-06  7.6780666602622342e-07  2.7466716838934942e-06  2.6361989676977654e-06  2.0353263824502171e-06  1.0551484021835845e-06  1.4975740465768823e-06  2.1651632260228325e-06  1.7080111580802001e-06  3.0570434035828812e-06  8.0904869308862562e-07  3.3346727304071823e-06  2.7569522208917355e-06  7.2641408029530087e-07  2.6207504693796564e-06  2.0958944694683511e-06  7.3656169816508835e-07  3.7703131242766188e-07  2.3208235891836289e-06  2.2118467868491897e-06  2.5622833455139970e-06  2.1808911736586649e-06  5.3853247425421287e-07  3.2369009759695860e-06  2.5163963637773715e-06  3.2277065474485164e-06  2.1928149107336958e-06  2.5794038882453392e-06  2.5863676372931799e-06  3.0911190542787266e-06  3.0860553079271489e-06  3.0995704501118711e-06  2.6948400302051304e-06  6.0445806317857012e-07  3.5296190437848499e-06  2.0128729749534358e-06  2.1573719777692298e-06  1.7850478387815371e-06  2.1293040440149005e-06  5.3441159208164480e-07  6.0604405517283457e-07  2.4712998458612480e-06  1.8658507799527651e-07  5.3462751684030095e-07  1.4102648835724801e-07  2.4557631688652362e-07  5.4796659777405549e-07  2.1611322462718025e-06  4.7575963257541866e-07  2.8459799795617970e-06  2.4790528116936718e-06  8.1587069928084087e-08  7.9310589933765236e-08  2.5649988529898940e-06  2.3730410704921245e-06  3.2282909388109667e-07  2.9594922532747690e-06  6.5628447043490844e-08  1.5024414318177466e-06  5.7140641578472598e-08  1.1514847016285507e-07  2.9322561254687963e-07  3.5745668272645554e-07  3.1019926570156935e-06  2.8269952003826117e-06  1.1623708538900435e-06  3.4210135963124248e-06  3.1003949250672190e-06  3.3801929073065332e-06  2.4116062988149601e-06  2.3923859215464919e-06  3.4107671167676234e-06  3.3674844241948665e-06  5.5901736599404394e-07  2.4255225057978776e-06  2.6272903733527210e-06  2.4735564797017686e-06  6.0612492116935713e-07  1.4735211593453861e-06  2.4752870590062079e-06  3.2006973524666282e-06  3.1766295699935025e-06  1.6508434464921090e-06  2.7659810482829841e-06  3.1186271212664136e-06  6.5001304898301374e-07  3.2058139481081090e-06  5.8005311603971053e-07  2.4169996213091650e-06  2.5782683452097467e-06  1.0739977959573251e-06  3.3666150619514958e-06  2.8472552620628