<?xml version="1.0"?>
<VTKFile type="UnstructuredGrid"  version="0.1"  >
<UnstructuredGrid>
<Piece  NumberOfPoints="2446" NumberOfCells="4585">
<Points>
<DataArray  type="Float64"  NumberOfComponents="3"  format="ascii">0 0.41 0  0 0 0  2.2 0 0  2.2 0.41 0  0.2404508497187474 0.2293892626146237 0  0.25 0.2 0  0.2404508497187474 0.1706107373853764 0  0.2154508497187474 0.1524471741852423 0  0.1845491502812526 0.1524471741852423 0  0.1595491502812526 0.1706107373853764 0  0.15 0.2 0  0.1595491502812526 0.2293892626146237 0  0.1845491502812527 0.2475528258147577 0  0.2154508497187474 0.2475528258147577 0  1.1 0 0  1.1 0.41 0  0 0.205 0  0.55 0 0  0.55 0.41 0  0.275 0 0  0.275 0.41 0  1.65 0.41 0  1.65 0 0  0.8250000000000001 0.41 0  0.8250000000000001 0 0  1.375 0 0  1.375 0.41 0  1.925 0 0  1.925 0.41 0  1.5125 0.205 0  1.7875 0.205 0  0.6875 0.205 0  0.9625000000000001 0.205 0  1.2375 0.205 0  2.2 0.205 0  0.4687002074688797 0.2068568464730291 0  1.99375 0.2152743902439024 0  2.0625 0 0  2.0625 0.41 0  2.2 0.3075 0  0.4125 0 0  0.4125 0.41 0  1.7875 0.41 0  1.375 0.1486128048780488 0  1.5125 0 0  1.7875 0 0  1.5125 0.41 0  0.8250000000000001 0.2613871951219511 0  0.9625000000000001 0.41 0  0.9625000000000001 0 0  0.6875 0.41 0  0.6875 0 0  0.1375 0 0  0.1375 0.41 0  1.2375 0 0  1.1 0.1486128048780487 0  1.2375 0.41 0  1.65 0.1486128048780487 0  1.126715909090909 0.2793064024390244 0  1.676715909090909 0.2793064024390244 0  0.8517159090909092 0.1306935975609756 0  1.348284090909091 0.2793064024390244 0  0.34375 0.3032389320646208 0  1.894702181800738 0.1282910975492754 0  2.092797818199262 0.1282910975492754 0  1.85625 0.3075 0  0.61875 0.3075 0  0.61875 0.1025 0  0.3648540804333487 0.1240075933101478 0  0 0.3075 0  0 0.1025 0  2.099172119769978 0.25625 0  0.48125 0.09238439620688085 0  0.5781001037344399 0.2059284232365146 0  0.48125 0.3196743479159776 0  0.7265881057911006 0.3055240343720796 0  1.99375 0.08395950269330846 0  1.459960956013612 0.3075 0  1.569025960719943 0.2986889805672169 0  0.75625 0.08213100772579164 0  1.03125 0.3278689922742084 0  0.923871252904788 0.3078247185783941 0  1.959375 0.3126371951219512 0  1.749222215368287 0.1025 0  1.275777784631713 0.1025 0  2.2 0.1025 0  1.225938124459196 0.3075 0  1.550777784631713 0.1025 0  1.000777784631713 0.1025 0  1.44375 0.07430640243902442 0  1.16875 0.07430640243902437 0  1.899250267340833 0.2229966846119207 0  0.1020898364287272 0.3140258291809757 0  1.766482954545455 0.2934032012195123 0  0.3405058858996321 0.2119987970531874 0  0.7710785630958338 0.1710968191298857 0  1.046078563095834 0.2389031808701144 0  0.2 0.3400647632937836 0  1.421109702350723 0.2261157654379721 0  0.2800464974185557 0.08982544815605742 0  0.098916018031319 0.09171660955420841 0  2.13125 0 0  2.118919042110979 0.3422084711244843 0  1.30625 0.41 0  0.89375 0 0  1.597888256393107 0.2173787389261347 0  0.20625 0 0  1.829299675393195 0.07400700849299596 0  1.71875 0.41 0  1.16875 0.41 0  2.038220665644273 0.332420740103091 0  0.34375 0 0  0.417496017710808 0.2696595573092803 0  0.2 0.07687845740457822 0  0.9295982307099278 0.1343158415898188 0  0.07390688010811153 0.1697064032433452 0  0.5238366813727013 0.2578302467013575 0  0.05452951551825875 0.25625 0  0.5229630068078351 0.1548816096928243 0  1.452769549894695 0.1548122580621249 0  1.369219062229598 0.07430640243902442 0  1.30625 0 0  0.8504409521244898 0.3356935975609756 0  0.8821881244591965 0.205 0  1.720943423819132 0.1714577452753128 0  1.157188124459196 0.205 0  1.094219062229598 0.07430640243902437 0  1.03125 0 0  1.304056576180868 0.1714577452753128 0  1.67579304192913 0.07430640243902437 0  0.2751941921308361 0.3346083473122598 0  1.209670467133757 0.1362100266964769 0  1.025335513626278 0.1700681449722324 0  0.7562500000000001 0.41 0  1.58125 0 0  0.7567170593862014 0.2409196493502535 0  0.6926714215682891 0.1272249611432207 0  0.4139715849905988 0.3397932387114203 0  0.9840787304190477 0.2717749043358119 0  0.06875000000000001 0.41 0  0 0.35875 0  0.9281250000000001 0.06276726142697993 0  0.5507396469029935 0.3219409231578227 0  0.5504468037989405 0.09136885600634273 0  1.58125 0.41 0  1.631724228912893 0.3381867502687533 0  1.825608881788174 0.14499488549201 0  1.85625 0 0  1.44375 0 0  1.44375 0.41 0  1.85625 0.41 0  2.13125 0.41 0  0.7562500000000001 0 0  0.89375 0.41 0  0.4812500000000001 0 0  0.34375 0.41 0  0.4812500000000001 0.41 0  0.20625 0.41 0  0.06875000000000001 0 0  1.16875 0 0  0.61875 0 0  0.61875 0.41 0  1.03125 0.41 0  1.71875 0 0  1.99375 0 0  1.99375 0.41 0  1.340625 0.3489494290853124 0  1.134375 0.3489494290853123 0  1.700180620188976 0.3438659752031281 0  2.135782184673599 0.07126652247502523 0  1.668441847249787 0.2129203728327609 0  1.295782514339747 0.2378437748815763 0  0.8233075729931248 0.06842334294821524 0  1.409375 0.3520314716057996 0  0.403505597322782 0.182067236678212 0  0.378125 0.05794951541303489 0  0.3043468223249023 0.1518321115979534 0  2.129248544730567 0.1906135162504124 0  2.060771381434487 0.1989445750470348 0  2.013252586573865 0.1496169464686054 0  1.942766402200229 0.1734448904596831 0  1.895522487186454 0.06076163953489683 0  2.069553871656643 0.06605731020975725 0  1.274680914880868 0.3520219391081363 0  1.614713220494657 0.09473434380863296 0  0.7899021319497519 0.3149123934144827 0  0.69518737419149 0.0634051089053758 0  0.2971740475496061 0.2592172353407536 0  1.72990325744076 0.2380068107952482 0  1.356580098625191 0.2120393231351682 0  2.034370752044885 0.2668681600792073 0  1.51768709249349 0.3426260931494756 0  1.561883724969884 0.1650446847858835 0  1.197344062229598 0.2523725417393646 0  1.804085235518364 0.3468178408964637 0  1.817887819205233 0.2589243285818559 0  1.905897727272727 0.3485060975609756 0  0.6719798073392919 0.2688965171178177 0  0 0.05125 0  0.653125 0.35875 0  0.6396896119294488 0.1627615407790282 0  0.4274150154087412 0.1242548552168279 0  1.192836486056382 0.3562350748565544 0  0.8279124365364005 0.183856489168822 0  1.097485222388854 0.2083571153401724 0  1.28257088594801 0.2944411014911587 0  1.474860187679412 0.2504218616229368 0  1.406767003493824 0.2829282258560709 0  0.446875 0.04619219810344041 0  0.515625 0.04585361801037557 0  0.592043440706648 0.05125 0  1.845656689180403 0.1998310418452388 0  2.144958525570388 0.2909790873294231 0  0.6171090763650112 0.2492366900333857 0  2.2 0.15375 0  0.5145586920831158 0.3648371739579888 0  1.57794966442982 0.3540357145964566 0  0.721875 0.3633107922168974 0  0.0496154796471391 0.333125 0  0.5843750000000001 0.3662560860076676 0  0.5810878747760798 0.1474002776121195 0  1.508991196088596 0.1421783375065625 0  0.8840670607017558 0.2640994375393898 0  0.09776612425612034 0.2204896805326566 0  1.50436820029908 0.06143401634903343 0  1.223857000523521 0.0823554862453532 0  1.153316824384777 0.1289850171317837 0  2.148922302309752 0.1258841779285271 0  0.309375 0.04312325590431198 0  1.621993280276081 0.2841214267927899 0  1.550118654119087 0.2461998729100966 0  1.327182649291491 0.1216967252533594 0  1.051977450479407 0.1221382572915816 0  1.753125 0.04556020050186112 0  1.271875 0.04556020050186116 0  0.9816084133102366 0.05126138213476004 0  1.039051841454368 0.0572224914831029 0  0.9719230514536006 0.3480477870845102 0  1.94956388244759 0.1180512551534177 0  1.949997712993411 0.04965831614304109 0  1.771961817615021 0.1530278789497521 0  1.909246823951428 0.2812757146784527 0  0.2459536687882397 0.04668633953831142 0  1.948575539857022 0.2445328248721197 0  1.697271520964565 0.1233917627620729 0  0.7964897648514618 0.1211426571931604 0  1.065625 0.3689344961371042 0  1.085849084308977 0.3170853572226867 0  0.4702981435440001 0.260434880697798 0  1.577403511714593 0.05463601888079143 0  0.05622663515370135 0.05493816910862376 0  0.3267207591099919 0.3566194660323104 0  0.9003051618565143 0.3564049499960621 0  1.751571320346033 0.3651102912045228 0  0.1583785085108421 0.2994699345738728 0  0.1455283439499995 0.3542795598723423 0  2.2 0.35875 0  0.2347662494194072 0.298325008655211 0  0.1527284455616188 0.1065771775690181 0  0.1382139529076665 0.05427454456341477 0  0.8749341636311069 0.05110114999892954 0  0.643661668713109 0.05693499781019222 0  1.466879772203159 0.3611261772912453 0  1.990280163552011 0.3564754268533217 0  1.17471064520912 0.2990917256188288 0  0.5202693090594349 0.206382495511728 0  0 0.25625 0  2.2 0.25625 0  2.2 0.05125 0  0 0.15375 0  1.853978576207987 0.35875 0  0.9787513713939683 0.1487523696999336 0  0.240625 0.3722153812029779 0  1.515638456102889 0.2882700110184686 0  0.09048297387599738 0.3637717362208066 0  2.150453692751374 0.2387066338105111 0  1.323782677156475 0.04897634338873398 0  0.8074131292871642 0.3624701995505916 0  1.409375 0.03715320121951221 0  1.406484531114799 0.1087852750766809 0  1.134375 0.03715320121951218 0  1.627401732573545 0.04552157221025036 0  0.1170173172005315 0.1427610859166811 0  2.045405893604797 0.1105340662939892 0  1.255408269734577 0.1577307500159216 0  2.028125 0.03707597992059326 0  0.4743610090857199 0.1421513964721819 0  0.9354010469015898 0.250631300585664 0  0.04420832937638274 0.128125 0  0.8922386349349938 0.0992956419364831 0  0.1197849154434487 0.2663398672460083 0  1.248258025468107 0.2565907092181813 0  0.3746885856929528 0.370723531618974 0  1.203125 0.0366132337404304 0  0.5724622277005015 0.2751253816079333 0  0.3365425205162783 0.08395777655057959 0  2.072662025974815 0.2975086504196739 0  0.4581080832182547 0.3648371739579888 0  0.3874522734668214 0.2295447548840689 0  0.7827853612484443 0.04106550386289586 0  1.887722846421017 0.1760882698830035 0  1.472640588990488 0.1118278026240017 0  1.865937103925594 0.2604137786483804 0  1.463913572748262 0.2030442564990043 0  1.376426316059077 0.3186741374914345 0  0.6641993820150034 0.3141688596240831 0  0.2943117490824315 0.2130987422685822 0  0.3478153998082709 0.1666571081082676 0  0.3427990510599805 0.2575950027870776 0  0.7997118993855807 0.2216171933356366 0  
[...]
<PointData  Scalars="f_10-2"> 
<DataArray  type="Float64"  Name="f_10-2"  format="ascii">1.2979992970386955e-07  1.9395513101203990e-07  3.1115277481744816e-06  2.8934239310884580e-06  1.5276666258897831e-06  1.9947462553933434e-06  1.4656006295551202e-06  6.7424296353537632e-07  3.5897949843876580e-07  2.5004196830066993e-07  2.1750259400477594e-07  2.5683605003331289e-07  3.7949056944774852e-07  7.0291996971347035e-07  2.1481887255751503e-06  1.8219026608307081e-06  1.5907283439895637e-07  1.0433576876890257e-06  9.4982873567776998e-07  9.2718579100713828e-07  7.8975716524199296e-07  2.6080900714534491e-06  2.9150811337727214e-06  1.2904185485780544e-06  1.5271658475211525e-06  2.6200359387391096e-06  2.2813981130475805e-06  3.0712804294471658e-06  2.8051517297354516e-06  3.9212634680414208e-06  3.8283318262784709e-06  3.4395250505558348e-06  3.8368191067986139e-06  3.9491579908642748e-06  3.6295056357763416e-06  2.6387949863337694e-06  3.7166092832149050e-06  3.1080422824070637e-06  2.8655121606153364e-06  3.2247759127403329e-06  9.9836078309305777e-07  9.1025497232978595e-07  2.7198978682708175e-06  3.7520494744224131e-06  2.7897825636681615e-06  3.0068165325770530e-06  2.4615331714190461e-06  3.0621464499154987e-06  1.5548057407912533e-06  1.8465463947369178e-06  1.0696887949863628e-06  1.2291558455954898e-06  5.6840794352198908e-07  3.9424623258792723e-07  2.4116380557025452e-06  3.6487276152626529e-06  2.0698326667459656e-06  3.7455087854878778e-06  3.1817122669898687e-06  3.4354292768437406e-06  3.0825703493180459e-06  3.3448968308013013e-06  1.0678377352427054e-06  3.5837727031121244e-06  3.5323125880444281e-06  3.2206869993393103e-06  1.6734721379874646e-06  1.9025173201845144e-06  1.1633482658395988e-06  1.3385365533874300e-07  1.6652139713809038e-07  3.5237028179894956e-06  1.2934872810046467e-06  3.1022740048481968e-06  1.1872007290654924e-06  2.0063323488594003e-06  3.3312561206502149e-06  3.0646087045761540e-06  3.2197719541464738e-06  1.9814957033756618e-06  2.2758407085229481e-06  2.4066995654400203e-06  3.1982474151486448e-06  3.4256184746607566e-06  3.2086102051914300e-06  3.3908187147842412e-06  2.8586176008836001e-06  3.3760840657634256e-06  2.8676501662254039e-06  3.0462724095619726e-06  2.7255966175731729e-06  3.7392645169248702e-06  3.7666487968717375e-07  3.3226347051947491e-06  1.9826274752498266e-06  3.4898770877944850e-06  3.6670378949042071e-06  8.4733034166884768e-07  3.8667821841638760e-06  9.0549733508406465e-07  4.0556397117265913e-07  3.1118802974277061e-06  3.0455065845056207e-06  2.1815759064124640e-06  1.6863705639253137e-06  3.8678213184635279e-06  8.0356553895308576e-07  3.2552821993737820e-06  2.6695544981623971e-06  1.9492928154590597e-06  3.0857422214207959e-06  9.8121545217214607e-07  1.4908576033380594e-06  8.2876022093371387e-07  3.2755904979309775e-06  1.6640442546586867e-07  2.1981567791892551e-06  1.5228462656402281e-07  2.4451112135605575e-06  3.8025654754318822e-06  2.9764921285239183e-06  2.5155226871967998e-06  1.8107593085429196e-06  3.7723329936517703e-06  3.8259791334696695e-06  3.9366302188765460e-06  2.6083702795159157e-06  2.0070238328865763e-06  3.8975370919817683e-06  3.1997118652350862e-06  9.5057640459540234e-07  3.5748852138998771e-06  3.7973943583920347e-06  1.1664771923532727e-06  2.8592418984736916e-06  3.2608107005221340e-06  2.6176063387310107e-06  1.0177155859172398e-06  3.1416610043052642e-06  1.8497134872589775e-07  1.2628551996909976e-07  2.1292246462703091e-06  1.3101742815161151e-06  1.4965668379690128e-06  2.5384169671337511e-06  2.8778924894325520e-06  3.6881562995008892e-06  3.0424751225077669e-06  2.7059181098704277e-06  2.3778548762115591e-06  2.7696757200687710e-06  2.8840098537358293e-06  1.3679834214826569e-06  1.4139649541982882e-06  1.0084508537711344e-06  8.7331788475787155e-07  9.2604729813990269e-07  6.2839603126481764e-07  2.8872552873548712e-07  2.2897775315786129e-06  1.1181764287445199e-06  9.9737902415461539e-07  1.6846735612209151e-06  2.9636022875627173e-06  3.0900521866568294e-06  2.8413075038603394e-06  2.4895149032329277e-06  2.1868126875198351e-06  2.8789169289503638e-06  3.2698657113125832e-06  3.8571667003041450e-06  3.7798554185193314e-06  1.9505465942217554e-06  2.5536281039645736e-06  2.1954524106751153e-06  1.0161159038451323e-06  1.2260436377920304e-06  3.6684839216099447e-06  3.7045476426055372e-06  3.6450276088790258e-06  3.7422982655591943e-06  3.2034699846917145e-06  3.2504374002834680e-06  2.3757591071332258e-06  3.3325297349937724e-06  1.9974292223493258e-06  1.5617495470372043e-06  1.1550002174269766e-06  3.7365681653511078e-06  3.9326401203431154e-06  3.4889537336720738e-06  2.7458310599077518e-06  3.8460627826622478e-06  3.6028397887699851e-06  2.9200891206376592e-06  3.5894990968528464e-06  2.9593072452262528e-06  2.5415826521106455e-06  1.7828939485407048e-07  1.1744599175615645e-06  3.0533554394694114e-06  1.4208762076156248e-06  2.2097067267923572e-06  3.6836683642659573e-06  3.9195971523893713e-06  3.0997322720325192e-06  3.6889411564572222e-06  3.3291598180886089e-06  1.0336636166369682e-06  1.0893813982376247e-06  1.2202069100247078e-06  3.8070174184535802e-06  3.3248357679380218e-06  2.7295802657277542e-06  3.5805170840881926e-06  9.9584225057353491e-07  2.7124207639580456e-06  1.2554742085141599e-06  1.4451064905361283e-07  1.0478340019261144e-06  2.5794568582329798e-06  3.7127155306390900e-06  3.1188077306969107e-06  1.7249174994551056e-07  2.9945760870359225e-06  2.9009050751026696e-06  3.4477501658591390e-06  3.5028614109463073e-06  9.6556012882809722e-07  3.3847342055239050e-06  3.7211674408317454e-06  3.4727484778717754e-06  3.2530847841296482e-06  3.0741324565972742e-06  2.6030363613580298e-06  2.1134592396121463e-06  2.3001327171950291e-06  1.8992005089063042e-06  3.5178828248546026e-06  3.1674672077551641e-06  3.7417323026161489e-06  3.4201563020281160e-06  9.0716379769613079e-07  3.6343392521701526e-06  3.5736401420980700e-06  2.7895438713632108e-06  1.8809548910633776e-06  2.5319412114471279e-06  1.8909902225438670e-06  3.0102663336331190e-06  2.2071401481483180e-07  9.2868714677638750e-07  1.6600022064018586e-06  2.7863361965201929e-06  6.7416451817351796e-07  5.7475559292072401e-07  2.9835271913149302e-06  8.0993188815361612e-07  6.0469223036874477e-07  6.4998199908621287e-07  1.8638135278166959e-06  1.3661561585993075e-06  2.5503692825347420e-06  2.9506258809047752e-06  2.9266911298433202e-06  2.8812269933170246e-06  1.4900083046972738e-07  3.4878099286878415e-06  3.1931382604641493e-06  1.6436569232255467e-07  2.8822902809192495e-06  3.5422033949463827e-06  7.8262197892678018e-07  3.3111984319078627e-06  2.4086939078726193e-07  3.5734048653987883e-06  2.7007742789314357e-06  1.4204717710942538e-06  2.7453232392662740e-06  3.3726838792242812e-06  2.3128519698721988e-06  2.9970140446975689e-06  3.0697065175653323e-07  3.4625935359231635e-06  3.8034773050481714e-06  3.1461574597071751e-06  1.9531671511354530e-06  3.4082596080812013e-06  1.7281767141358430e-07  2.6090260197785554e-06  3.6661622823228615e-07  3.5747935053694657e-06  9.2499483516084810e-07  2.4392722159197615e-06  2.0738282085579433e-06  9.9985782771159065e-07  3.2979540732816183e-06  9.6957373908667723e-07  1.9727410808810800e-06  1.5558525917944975e-06  3.7740567904842400e-06  3.4332525333648737e-06  3.5688575956341357e-06  3.9385073791204822e-06  2.8622445894277243e-06  1.6928675699597530e-06  1.9160006547728883e-06  1.6142059534731579e-06  1.2983577877439961e-06  3.5667634749347421e-06  3.4096414682932394e-06  3.6700517345448525e-06  3.1562275964364580e-06  3.3564373274261039e-06  2.7172875158157278e-06  3.7320650336620925e-06  3.0325300508875704e-06  3.5313110033287908e-06  3.9532113015942045e-06  8.7522772293560684e-07  2.8538383365121680e-06  3.7004128348379358e-06  3.2994468119791673e-06  3.0974119553146597e-06  3.2490467879755407e-06  1.5836643052952670e-07  3.5415732224760928e-06  3.0971288131702381e-06  2.8761285928615607e-06  2.9482829029263227e-06  3.8975070927172985e-07  1.4455694978341841e-06  2.5743834275509111e-06  3.5017621564722967e-06  3.2755886005118893e-06  7.0114599730566617e-07  3.7136736478718437e-06  3.9303671394572123e-06  2.7487334007706277e-06  3.8933388341742598e-06  2.5028139843339613e-06  1.3487544547017916e-06  2.9397917529247482e-06  3.0424527810250267e-06  1.6226004595423469e-06  1.7812725208750749e-06  3.1497451938115965e-06  2.9291641296007561e-06  1.4068578467948020e-07  1.9179680579469966e-06  1.3030784311814191e-06  3.7762807906829399e-06  3.5734242294564234e-06  3.7403315169797588e-06  3.0895401956301460e-06  3.3825322313738871e-06  2.8244384478103558e-06  2.8833039424604417e-06  2.3571771458287833e-06  6.6399650875887011e-07  2.7436102249438184e-06  2.1903869658921754e-06  3.0650752315221481e-06  2.7068040253811841e-06  2.5620443315168643e-06  1.0920730238516507e-06  5.2045751408735617e-07  3.6390401646001358e-06  1.4887184044440597e-06  3.9100948054994756e-06  2.1860208656163555e-06  3.6642546373280816e-06  2.8250505546163031e-06  7.9084797764519504e-07  3.8663827704982560e-06  2.3041721948740508e-06  3.6220471425019512e-06  2.7672014112533218e-06  1.1287395180707513e-06  1.2015220554643787e-06  3.5645062774634919e-06  2.9228742432784145e-06  3.5095091357024116e-06  3.7409597382209338e-06  3.8423395669985640e-06  1.8128104563132923e-07  3.6218331879902319e-06  2.8996693419381284e-06  3.1595033901380958e-06  2.5286429298664626e-06  2.7883253745718133e-06  3.1121300809568115e-06  3.0586844993284584e-06  3.3258572051052230e-06  3.3421420186165247e-06  3.3064015971405867e-06  2.9872640783100807e-06  3.4520761562400647e-06  2.1356203675103636e-07  2.1289024545208929e-06  9.9687609026271788e-07  1.3298685869877234e-07  2.9106510442138837e-06  3.7453795366533856e-06  3.2206981363880351e-06  2.4544873505347192e-06  1.9112703459463961e-07  1.1049932912511086e-06  7.6109632996577366e-07  3.2585437966752198e-06  2.1003808365511946e-06  1.6193054714824278e-06  1.3667275875981480e-06  3.9008134546260199e-06  1.6306065209571318e-07  3.4387822039232836e-06  2.3969288958427599e-06  3.2866225868881178e-06  3.4596192338580220e-06  8.3969943957418761e-07  6.2803273179943022e-07  3.6887388445657640e-06  8.3857398378176278e-07  3.1141843515299549e-06  2.6598370438442167e-06  1.7535733430207618e-06  2.8916679078639261e-06  1.0298796706130903e-06  1.5994958732034468e-06  2.7749573521271248e-06  1.4654475506850039e-06  1.4081001407289616e-07  2.8619910715685609e-06  3.8484287875056979e-06  3.9566374098917267e-06  3.6559074480770227e-06  3.6118668893393563e-06  3.3831531668226640e-06  2.6775486831307818e-06  3.1449292731727824e-06  3.7908182394021395e-06  3.8127201159799927e-06  3.6596749624175478e-06  2.3931395026561690e-07  9.9550848621241459e-07  3.1323476336602155e-06  3.4287356304314771e-06  2.2578450610614531e-07  9.1774002522190796e-07  3.0618778171170406e-06  3.0617084533881998e-06  1.3635943193975187e-06  5.5467998916522585e-07  9.4064186260479006e-07  1.7378522764487990e-07  2.4929039153938832e-06  2.6475955297163269e-06  3.8890765124482271e-06  2.5381492180755235e-06  2.5418757835129624e-06  3.0251570680719948e-06  1.5780581331006826e-06  3.6150567721527453e-06  3.6582625540982737e-06  3.0427107705817490e-06  1.7198125680024353e-06  3.3292012278658461e-06  3.6318061198830576e-06  3.6436675897464707e-06  3.0250607483196351e-06  3.0675533881867424e-06  3.8877241022538105e-06  3.4157880065531268e-06  3.8488764661267175e-06  1.2700616273029870e-06  3.0033166170327333e-06  2.0920008152705039e-06  1.9017931395993958e-06  1.8038744185058635e-06  1.6051295580702823e-06  1.6531400039991400e-06  3.3569220635019306e-06  3.4155325589347050e-06  2.0313844720928959e-06  3.7456917520834261e-06  2.9200357608457634e-06  2.6140666234005469e-06  3.9056227257271817e-06  3.7689622559550769e-06  3.5972584530985368e-06  3.8005653958013317e-06  2.7492016043723017e-06  9.9121329740401861e-07  9.3761806223348316e-07  2.6733079393546925e-06  1.8453217617213953e-06  2.6347930184105307e-06  3.3892743806809917e-06  2.0197482953140670e-06  1.8871591919088174e-06  2.2767337752405743e-06  2.2264752831753621e-06  2.3808254861058817e-06  2.6740907419098880e-06  3.9395497883334819e-06  3.5946154181352242e-06  2.0068868808400823e-06  1.2280292051309294e-06  1.0515819523354070e-06  2.1776315065817751e-06  1.5504490431641827e-06  1.0119408725369952e-06  9.9212702652480424e-07  1.1760152837600597e-06  1.6395072065589323e-06  1.3171582876217589e-06  1.2439849798955310e-06  3.7603222884665747e-06  2.4876644898686316e-06  3.5983907853408110e-06  1.3001463728892090e-06  2.0833848811894795e-06  1.8945073386914243e-06  2.9095887888543022e-06  2.6365867914967733e-06  3.7286283518159945e-06  3.7152894164736748e-06  3.4385273347989567e-06  2.1222339242555825e-06  1.9137385876115632e-06  2.3628079209488090e-06  1.0334947385018457e-06  2.5710522056245275e-06  2.0822544738705477e-06  3.1115910564466300e-06  3.1088932286271644e-06  2.2217940993654434e-06  2.6679336338556208e-06  2.4210417924985960e-06  2.6960714539745123e-06  1.7548233049585907e-06  2.9897205032951057e-06  1.1172621594582088e-06  2.3284431026722230e-06  1.2974293369794318e-06  2.8919328059092099e-06  1.7723365753828546e-06  8.9585514891351339e-07  1.0015208193472218e-06  9.1843395894052348e-07  4.1889726428478725e-07  7.2053016444439273e-07  8.7581078988718041e-07  2.7207256081865559e-07  1.1672816241459864e-06  1.4452753730198696e-06  9.6090103253910801e-07  9.6766255004398108e-07  9.3470367282881571e-07  1.0739088129592144e-06  1.0194816810380799e-06  1.0247827755811959e-06  1.9341137509083547e-06  2.3481784326208090e-06  2.8871489107103100e-06  3.0804900966784878e-06  2.4648448549160907e-06  3.0996247230793788e-06  2.8216461646290100e-06  2.7241009087405823e-06  3.4898317148208055e-06  1.9570682610995876e-06  3.5246381954331585e-06  3.7869372352511306e-06  1.0764179841065864e-06  3.7375986083870064e-06  3.4068232766904973e-06  2.4383706858427661e-06  3.0332259585123744e-06  2.9875919408958148e-06  3.0953382908493263e-06  4.1662555869066047e-07  2.7216519632653924e-06  2.3983484101629184e-06  3.6268414514894388e-06  3.1777686531059371e-06  3.8579975370132146e-06  8.6980926438332546e-07  3.1283637371279177e-06  3.4784971318485552e-06  3.6998831494667610e-06  3.9472381702031967e-06  3.2096150034936907e-06  2.4846017397413600e-06  2.1111289045284637e-06  3.0409579225758674e-06  1.6466298787709499e-06  1.5473999825742320e-07  9.1882072969069832e-07  2.9098368284890225e-06  1.0507958360206169e-06  3.1435172882347731e-06  3.3795676059500181e-06  2.7572626005086853e-06  1.1213342586658773e-06  3.9276455278867765e-06  2.0915103868247435e-07  2.5119679816716802e-06  3.7694172350018510e-06  3.7051940932698505e-06  3.5607800820773591e-07  3.1051768350996067e-06  7.9194879190425707e-07  2.0960821115930117e-06  2.4524781975301738e-06  3.5358387157055137e-06  3.2877799265026589e-06  2.7704459415984142e-06  3.8917134939333736e-06  3.0316286688613395e-06  3.2043912306286004e-06  3.7181040781359880e-06  3.3117261379568692e-06  3.4468895863409906e-06  1.2296943608943318e-06  3.7609520022641331e-06  3.6307740386702844e-06  2.6503715611742518e-06  1.9754890802498605e-06  3.2634940418836790e-06  3.1996058646331354e-06  3.6664691938865123e-07  2.8270349319984041e-06  1.5257530055975972e-06  2.5570856569174931e-06  1.5715033491937089e-06  9.3771959612960078e-07  6.6957480664275835e-07  2.5360448515442997e-06  2.5978042097287713e-06  3.3542811571248052e-06  3.9059260815187927e-06  9.4470661855212149e-07  3.1509510816296821e-06  3.1092753861221171e-06  1.3086680228102022e-06  3.1419368324447369e-06  2.8052558576779871e-06  1.8698249294747594e-06  3.0287336858502136e-06  3.9026512395788468e-06  3.1809377948736205e-06  2.8714179075645809e-06  3.7612031297271061e-06  2.6055254028617966e-06  2.6390018715944183e-06  2.3375221833631349e-07  3.5628478427335366e-06  1.1766259875375949e-06  3.8536745275497308e-06  3.3244549910022573e-06  3.7862871663471508e-06  3.8652308302196205e-06  3.0441438194382905e-06  3.4514204561760208e-06  3.4052271974505244e-06  3.6833802277033441e-06  2.8113187706616070e-06  2.8558297566404655e-06  1.8855503255103265e-07  1.9698094805701250e-07  3.7113486040882372e-06  3.3687716722911892e-06  2.6940024462011006e-06  3.0325343101332385e-07  1.0656634750517215e-06  2.7654755075125826e-06  8.4641375339392789e-07  7.3419594211038903e-07  1.4156902413123029e-06  3.5191111133433574e-06  1.9760988752533389e-06  2.2867240455920201e-06  9.7611234754360675e-07  2.8596008973467832e-06  2.7781800443278466e-06  1.4862176313276238e-06  1.5305544760288885e-07  1.0869767558226937e-06  9.9291765892786948e-07  3.2540019430754537e-06  2.0678580118618187e-06  3.1070145042469014e-06  3.7568004113567822e-06  3.5971927922349167e-06  3.3755936084599512e-06  3.5808146383698705e-06  3.1081049777204766e-06  1.4348310122241233e-06  3.8950040021760836e-06  3.9352880236891821e-06  3.5407061217154823e-06  3.5244547839462229e-06  3.3629321084244597e-06  3.2352887881167903e-06  3.4711624205683108e-06  3.4706542895395991e-06  2.3981143639045296e-06  4.1614992251633610e-07  5.9112673332954148e-07  3.6037383799207954e-06  2.6541557065402931e-06  3.9046183544201243e-06  3.8348176029397308e-06  3.3856166281371406e-06  3.8448427307464213e-06  2.7491838131149681e-06  3.0317753026086575e-06  1.5369284818240228e-06  1.6913673523827623e-06  2.0382256677636987e-06  3.6226133241978490e-06  3.7307690973978844e-06  3.3979942744035761e-06  3.6365226691570389e-06  1.5882890665247226e-06  2.3178290274205586e-06  3.7904196503139969e-06  2.9188243625918329e-06  2.7340920586407859e-06  2.1240159030357055e-06  1.5409837981947251e-06  3.4957593731296091e-06  8.1325052619328509e-07  3.1583373995559693e-06  3.5057837956249398e-06  1.4815369362010236e-06  2.1844321883659552e-06  1.1694331330351718e-06  3.1550825223926383e-06  3.0695108312531011e-06  2.4331368775623256e-06  1.4464342131762165e-06  1.8466551274047951e-06  2.8716922890746201e-06  2.0778009579726011e-06  3.4956673502161058e-06  1.2019901159663125e-06  3.7489360400044271e-06  3.1457643666814149e-06  1.1178880856977885e-06  3.0353570230528598e-06  2.4984540836806539e-06  1.1302950832366909e-06  6.0087268994507857e-07  2.7268790293206089e-06  3.1674320520788276e-06  3.4796910323630108e-06  3.2461617177645797e-06  9.5557290275693254e-07  3.7163087304400370e-06  3.1150299441600007e-06  3.6527967113696300e-06  2.5601393103482834e-06  2.9961201531491224e-06  3.0235546159806155e-06  3.4928853327616247e-06  3.5178509075753905e-06  3.5141542361176505e-06  3.0941000278888636e-06  9.6412602527245310e-07  3.9590577720271945e-06  2.3984637581686600e-06  2.5649699448386912e-06  2.1793733096780803e-06  2.5566931917696861e-06  9.5359295948146998e-07  1.0299373862858594e-06  2.8533964002913312e-06  3.3761713186543331e-07  8.7626093277974235e-07  2.7059478181339316e-07  4.7073164600258263e-07  9.1912593528473560e-07  2.5420345791429878e-06  8.6767913736693869e-07  3.2667406217482429e-06  3.6284363219024507e-06  1.6044905721508300e-07  1.5735332009146332e-07  2.9441502790769829e-06  2.7420759815206576e-06  5.2422896014008381e-07  3.4911845094974122e-06  1.4027839161510815e-07  1.9033395068381404e-06  1.2821439511511116e-07  2.2580295754736032e-07  4.8081176297293541e-07  5.9447616073146801e-07  3.6534347503376639e-06  3.6343230569435395e-06  1.5910990209477269e-06  3.8417000609571242e-06  3.5060956384791067e-06  3.7985430585300942e-06  2.8003634433669092e-06  2.7773194175150982e-06  3.8298079550829985e-06  3.8227363365795996e-06  9.7503690916572998e-07  2.8303798736617066e-06  3.1908641744591707e-06  3.0963229576231385e-06  1.0255338792935055e-06  1.8387230121482495e-06  2.8621995508697764e-06  3.6335555901610285e-06  3.6059003209351650e-06  2.0226333614689633e-06  3.1632686192367182e-06  3.5444262624172722e-06  1.0443742801293720e-06  3.6958893017724772e-06  9.7147647630574834e-07  2.8140089264508545e-06  2.9932440098566327e-06  1.4949848944051701e-06  3.7892666029119513e-06  3.2495854131961