<?xml version="1.0"?>
<VTKFile type="UnstructuredGrid"  version="0.1"  >
<UnstructuredGrid>
<Piece  NumberOfPoints="2446" NumberOfCells="4585">
<Points>
<DataArray  type="Float64"  NumberOfComponents="3"  format="ascii">0 0.41 0  0 0 0  2.2 0 0  2.2 0.41 0  0.2404508497187474 0.2293892626146237 0  0.25 0.2 0  0.2404508497187474 0.1706107373853764 0  0.2154508497187474 0.1524471741852423 0  0.1845491502812526 0.1524471741852423 0  0.1595491502812526 0.1706107373853764 0  0.15 0.2 0  0.1595491502812526 0.2293892626146237 0  0.1845491502812527 0.2475528258147577 0  0.2154508497187474 0.2475528258147577 0  1.1 0 0  1.1 0.41 0  0 0.205 0  0.55 0 0  0.55 0.41 0  0.275 0 0  0.275 0.41 0  1.65 0.41 0  1.65 0 0  0.8250000000000001 0.41 0  0.8250000000000001 0 0  1.375 0 0  1.375 0.41 0  1.925 0 0  1.925 0.41 0  1.5125 0.205 0  1.7875 0.205 0  0.6875 0.205 0  0.9625000000000001 0.205 0  1.2375 0.205 0  2.2 0.205 0  0.4687002074688797 0.2068568464730291 0  1.99375 0.2152743902439024 0  2.0625 0 0  2.0625 0.41 0  2.2 0.3075 0  0.4125 0 0  0.4125 0.41 0  1.7875 0.41 0  1.375 0.1486128048780488 0  1.5125 0 0  1.7875 0 0  1.5125 0.41 0  0.8250000000000001 0.2613871951219511 0  0.9625000000000001 0.41 0  0.9625000000000001 0 0  0.6875 0.41 0  0.6875 0 0  0.1375 0 0  0.1375 0.41 0  1.2375 0 0  1.1 0.1486128048780487 0  1.2375 0.41 0  1.65 0.1486128048780487 0  1.126715909090909 0.2793064024390244 0  1.676715909090909 0.2793064024390244 0  0.8517159090909092 0.1306935975609756 0  1.348284090909091 0.2793064024390244 0  0.34375 0.3032389320646208 0  1.894702181800738 0.1282910975492754 0  2.092797818199262 0.1282910975492754 0  1.85625 0.3075 0  0.61875 0.3075 0  0.61875 0.1025 0  0.3648540804333487 0.1240075933101478 0  0 0.3075 0  0 0.1025 0  2.099172119769978 0.25625 0  0.48125 0.09238439620688085 0  0.5781001037344399 0.2059284232365146 0  0.48125 0.3196743479159776 0  0.7265881057911006 0.3055240343720796 0  1.99375 0.08395950269330846 0  1.459960956013612 0.3075 0  1.569025960719943 0.2986889805672169 0  0.75625 0.08213100772579164 0  1.03125 0.3278689922742084 0  0.923871252904788 0.3078247185783941 0  1.959375 0.3126371951219512 0  1.749222215368287 0.1025 0  1.275777784631713 0.1025 0  2.2 0.1025 0  1.225938124459196 0.3075 0  1.550777784631713 0.1025 0  1.000777784631713 0.1025 0  1.44375 0.07430640243902442 0  1.16875 0.07430640243902437 0  1.899250267340833 0.2229966846119207 0  0.1020898364287272 0.3140258291809757 0  1.766482954545455 0.2934032012195123 0  0.3405058858996321 0.2119987970531874 0  0.7710785630958338 0.1710968191298857 0  1.046078563095834 0.2389031808701144 0  0.2 0.3400647632937836 0  1.421109702350723 0.2261157654379721 0  0.2800464974185557 0.08982544815605742 0  0.098916018031319 0.09171660955420841 0  2.13125 0 0  2.118919042110979 0.3422084711244843 0  1.30625 0.41 0  0.89375 0 0  1.597888256393107 0.2173787389261347 0  0.20625 0 0  1.829299675393195 0.07400700849299596 0  1.71875 0.41 0  1.16875 0.41 0  2.038220665644273 0.332420740103091 0  0.34375 0 0  0.417496017710808 0.2696595573092803 0  0.2 0.07687845740457822 0  0.9295982307099278 0.1343158415898188 0  0.07390688010811153 0.1697064032433452 0  0.5238366813727013 0.2578302467013575 0  0.05452951551825875 0.25625 0  0.5229630068078351 0.1548816096928243 0  1.452769549894695 0.1548122580621249 0  1.369219062229598 0.07430640243902442 0  1.30625 0 0  0.8504409521244898 0.3356935975609756 0  0.8821881244591965 0.205 0  1.720943423819132 0.1714577452753128 0  1.157188124459196 0.205 0  1.094219062229598 0.07430640243902437 0  1.03125 0 0  1.304056576180868 0.1714577452753128 0  1.67579304192913 0.07430640243902437 0  0.2751941921308361 0.3346083473122598 0  1.209670467133757 0.1362100266964769 0  1.025335513626278 0.1700681449722324 0  0.7562500000000001 0.41 0  1.58125 0 0  0.7567170593862014 0.2409196493502535 0  0.6926714215682891 0.1272249611432207 0  0.4139715849905988 0.3397932387114203 0  0.9840787304190477 0.2717749043358119 0  0.06875000000000001 0.41 0  0 0.35875 0  0.9281250000000001 0.06276726142697993 0  0.5507396469029935 0.3219409231578227 0  0.5504468037989405 0.09136885600634273 0  1.58125 0.41 0  1.631724228912893 0.3381867502687533 0  1.825608881788174 0.14499488549201 0  1.85625 0 0  1.44375 0 0  1.44375 0.41 0  1.85625 0.41 0  2.13125 0.41 0  0.7562500000000001 0 0  0.89375 0.41 0  0.4812500000000001 0 0  0.34375 0.41 0  0.4812500000000001 0.41 0  0.20625 0.41 0  0.06875000000000001 0 0  1.16875 0 0  0.61875 0 0  0.61875 0.41 0  1.03125 0.41 0  1.71875 0 0  1.99375 0 0  1.99375 0.41 0  1.340625 0.3489494290853124 0  1.134375 0.3489494290853123 0  1.700180620188976 0.3438659752031281 0  2.135782184673599 0.07126652247502523 0  1.668441847249787 0.2129203728327609 0  1.295782514339747 0.2378437748815763 0  0.8233075729931248 0.06842334294821524 0  1.409375 0.3520314716057996 0  0.403505597322782 0.182067236678212 0  0.378125 0.05794951541303489 0  0.3043468223249023 0.1518321115979534 0  2.129248544730567 0.1906135162504124 0  2.060771381434487 0.1989445750470348 0  2.013252586573865 0.1496169464686054 0  1.942766402200229 0.1734448904596831 0  1.895522487186454 0.06076163953489683 0  2.069553871656643 0.06605731020975725 0  1.274680914880868 0.3520219391081363 0  1.614713220494657 0.09473434380863296 0  0.7899021319497519 0.3149123934144827 0  0.69518737419149 0.0634051089053758 0  0.2971740475496061 0.2592172353407536 0  1.72990325744076 0.2380068107952482 0  1.356580098625191 0.2120393231351682 0  2.034370752044885 0.2668681600792073 0  1.51768709249349 0.3426260931494756 0  1.561883724969884 0.1650446847858835 0  1.197344062229598 0.2523725417393646 0  1.804085235518364 0.3468178408964637 0  1.817887819205233 0.2589243285818559 0  1.905897727272727 0.3485060975609756 0  0.6719798073392919 0.2688965171178177 0  0 0.05125 0  0.653125 0.35875 0  0.6396896119294488 0.1627615407790282 0  0.4274150154087412 0.1242548552168279 0  1.192836486056382 0.3562350748565544 0  0.8279124365364005 0.183856489168822 0  1.097485222388854 0.2083571153401724 0  1.28257088594801 0.2944411014911587 0  1.474860187679412 0.2504218616229368 0  1.406767003493824 0.2829282258560709 0  0.446875 0.04619219810344041 0  0.515625 0.04585361801037557 0  0.592043440706648 0.05125 0  1.845656689180403 0.1998310418452388 0  2.144958525570388 0.2909790873294231 0  0.6171090763650112 0.2492366900333857 0  2.2 0.15375 0  0.5145586920831158 0.3648371739579888 0  1.57794966442982 0.3540357145964566 0  0.721875 0.3633107922168974 0  0.0496154796471391 0.333125 0  0.5843750000000001 0.3662560860076676 0  0.5810878747760798 0.1474002776121195 0  1.508991196088596 0.1421783375065625 0  0.8840670607017558 0.2640994375393898 0  0.09776612425612034 0.2204896805326566 0  1.50436820029908 0.06143401634903343 0  1.223857000523521 0.0823554862453532 0  1.153316824384777 0.1289850171317837 0  2.148922302309752 0.1258841779285271 0  0.309375 0.04312325590431198 0  1.621993280276081 0.2841214267927899 0  1.550118654119087 0.2461998729100966 0  1.327182649291491 0.1216967252533594 0  1.051977450479407 0.1221382572915816 0  1.753125 0.04556020050186112 0  1.271875 0.04556020050186116 0  0.9816084133102366 0.05126138213476004 0  1.039051841454368 0.0572224914831029 0  0.9719230514536006 0.3480477870845102 0  1.94956388244759 0.1180512551534177 0  1.949997712993411 0.04965831614304109 0  1.771961817615021 0.1530278789497521 0  1.909246823951428 0.2812757146784527 0  0.2459536687882397 0.04668633953831142 0  1.948575539857022 0.2445328248721197 0  1.697271520964565 0.1233917627620729 0  0.7964897648514618 0.1211426571931604 0  1.065625 0.3689344961371042 0  1.085849084308977 0.3170853572226867 0  0.4702981435440001 0.260434880697798 0  1.577403511714593 0.05463601888079143 0  0.05622663515370135 0.05493816910862376 0  0.3267207591099919 0.3566194660323104 0  0.9003051618565143 0.3564049499960621 0  1.751571320346033 0.3651102912045228 0  0.1583785085108421 0.2994699345738728 0  0.1455283439499995 0.3542795598723423 0  2.2 0.35875 0  0.2347662494194072 0.298325008655211 0  0.1527284455616188 0.1065771775690181 0  0.1382139529076665 0.05427454456341477 0  0.8749341636311069 0.05110114999892954 0  0.643661668713109 0.05693499781019222 0  1.466879772203159 0.3611261772912453 0  1.990280163552011 0.3564754268533217 0  1.17471064520912 0.2990917256188288 0  0.5202693090594349 0.206382495511728 0  0 0.25625 0  2.2 0.25625 0  2.2 0.05125 0  0 0.15375 0  1.853978576207987 0.35875 0  0.9787513713939683 0.1487523696999336 0  0.240625 0.3722153812029779 0  1.515638456102889 0.2882700110184686 0  0.09048297387599738 0.3637717362208066 0  2.150453692751374 0.2387066338105111 0  1.323782677156475 0.04897634338873398 0  0.8074131292871642 0.3624701995505916 0  1.409375 0.03715320121951221 0  1.406484531114799 0.1087852750766809 0  1.134375 0.03715320121951218 0  1.627401732573545 0.04552157221025036 0  0.1170173172005315 0.1427610859166811 0  2.045405893604797 0.1105340662939892 0  1.255408269734577 0.1577307500159216 0  2.028125 0.03707597992059326 0  0.4743610090857199 0.1421513964721819 0  0.9354010469015898 0.250631300585664 0  0.04420832937638274 0.128125 0  0.8922386349349938 0.0992956419364831 0  0.1197849154434487 0.2663398672460083 0  1.248258025468107 0.2565907092181813 0  0.3746885856929528 0.370723531618974 0  1.203125 0.0366132337404304 0  0.5724622277005015 0.2751253816079333 0  0.3365425205162783 0.08395777655057959 0  2.072662025974815 0.2975086504196739 0  0.4581080832182547 0.3648371739579888 0  0.3874522734668214 0.2295447548840689 0  0.7827853612484443 0.04106550386289586 0  1.887722846421017 0.1760882698830035 0  1.472640588990488 0.1118278026240017 0  1.865937103925594 0.2604137786483804 0  1.463913572748262 0.2030442564990043 0  1.376426316059077 0.3186741374914345 0  0.6641993820150034 0.3141688596240831 0  0.2943117490824315 0.2130987422685822 0  0.3478153998082709 0.1666571081082676 0  0.3427990510599805 0.2575950027870776 0  0.7997118993855807 0.2216171933356366 0  
[...]
<PointData  Scalars="f_10-2"> 
<DataArray  type="Float64"  Name="f_10-2"  format="ascii">6.7985527902170387e-08  1.1219734146181042e-07  2.2565403592221631e-06  2.1077317205294265e-06  1.2786264155965333e-06  1.7279629187624711e-06  1.2375729732661241e-06  5.1431971334528931e-07  2.4905382472447482e-07  1.6586561880534855e-07  1.4040782147547557e-07  1.6958163136251644e-07  2.5947579396476510e-07  5.2396729021241851e-07  1.8527444524358878e-06  1.5177620907011430e-06  9.4519978509101134e-08  7.2584338023401712e-07  6.1267604759745449e-07  6.1973394693882112e-07  4.9373652856177965e-07  2.3207410541368417e-06  2.6168974257631036e-06  9.7113732014166665e-07  1.2254654483935495e-06  2.3271558270275340e-06  1.9892041307595835e-06  2.6759107337828871e-06  2.4390517511796930e-06  3.5822983507000428e-06  3.4909192569566164e-06  3.0936925623589823e-06  3.4853790050893811e-06  3.6017079866386431e-06  2.9852786867465372e-06  2.3177958299002339e-06  3.3231977756608635e-06  2.5348895331246431e-06  2.3388126812725910e-06  2.5709062856993354e-06  6.7379350516731628e-07  5.7424642345624698e-07  2.4164585469291010e-06  3.4175970735806965e-06  2.4967190458522910e-06  2.6850295271673743e-06  2.1740424111857459e-06  2.7130809138605033e-06  1.2437004251208824e-06  1.5488285472703865e-06  7.4123001136645516e-07  9.2100572457583562e-07  3.6636093683723978e-07  2.3486536635534507e-07  2.1175170300917538e-06  3.3096561562986740e-06  1.7718541989083016e-06  3.4166461373161470e-06  2.8435972974285169e-06  3.1159809065085750e-06  2.7504795262630675e-06  3.0144761283178139e-06  7.4329259230486618e-07  3.2331560538014244e-06  3.0324930627099282e-06  2.8967921711941717e-06  1.3281548810440249e-06  1.5839993308434296e-06  8.8507788960323913e-07  7.4171958258560781e-08  9.7443615219392798e-08  3.0378695635980785e-06  9.8103286989421048e-07  2.7650871655857135e-06  8.4120574436049179e-07  1.6636607344385951e-06  2.9228618790713260e-06  2.7490142002960538e-06  2.9048265978156986e-06  1.6653275502406522e-06  1.9508194501374002e-06  2.0711413695502919e-06  2.8375708585293220e-06  3.1056563468283631e-06  2.8890480522557722e-06  2.6989521007366711e-06  2.5338711614783537e-06  3.0605696956688658e-06  2.5455286657514569e-06  2.7395384822059351e-06  2.4156572909550299e-06  3.3866943084600060e-06  2.3863058317479659e-07  3.0059730718484157e-06  1.6922508393069859e-06  3.1475097161041618e-06  3.3174208995512134e-06  5.6030545760004677e-07  3.5259193980320914e-06  6.4270400747507022e-07  2.6782034739081540e-07  2.3896379117171268e-06  2.5047868093335015e-06  1.8865096558667369e-06  1.3869738241775501e-06  3.5321989864424940e-06  5.3129237603306317e-07  2.9277748885678260e-06  2.3774720185383738e-06  1.6482646073713636e-06  2.6611071090802742e-06  6.5969646168083914e-07  1.1581724961702504e-06  5.7843910652390504e-07  2.9413578277336431e-06  9.9842391403766409e-08  1.8553865360722084e-06  8.8972083228663818e-08  2.1291860215150107e-06  3.4682846710575312e-06  2.6688761927199416e-06  2.2223497531944468e-06  1.4801836201341576e-06  3.4209134911604374e-06  3.4925687175131314e-06  3.5873793388163229e-06  2.2976147919226690e-06  1.7103672331081987e-06  3.5556361263538424e-06  2.8915623337902492e-06  6.3541439433911578e-07  3.2414014477833232e-06  3.4516674952574487e-06  8.4296266879753628e-07  2.5646879989993037e-06  2.9099261730309161e-06  2.2912597560306996e-06  6.7587354469358448e-07  2.7973613714537668e-06  1.0220810134814941e-07  6.6906080855416247e-08  1.8203001736902466e-06  9.6455887252689974e-07  1.1808567101319657e-06  2.2520481168146160e-06  2.5786703422767657e-06  3.3507949939632257e-06  2.6928731424842571e-06  2.4134262277153261e-06  2.0881209351957851e-06  2.4438700563147251e-06  2.2212200663387028e-06  1.0635642334379190e-06  1.0992160963796435e-06  6.8626512608325880e-07  5.4929808103081972e-07  5.8725624431026114e-07  3.8656289170413562e-07  1.7574492783775536e-07  1.9948539066429120e-06  8.0561835797911022e-07  6.6411015145779007e-07  1.3773534356604052e-06  2.6572809635185909e-06  2.6207655386534238e-06  2.4120754988678183e-06  2.1843760861159445e-06  1.8729015400737833e-06  2.5809287322810271e-06  2.6582910843600198e-06  3.5227503378303770e-06  3.4365260368223742e-06  1.6385540837381649e-06  2.2521300921911375e-06  1.9004857436750142e-06  7.0171605488670383e-07  9.8756697573212089e-07  3.1315706461364496e-06  3.2557159170996531e-06  3.2327250397053394e-06  3.3718727737374693e-06  2.8519666115484789e-06  2.7461717962791234e-06  2.0687479884010004e-06  3.0197659580756848e-06  1.6589522889084495e-06  1.2481728858447491e-06  8.8947053445507466e-07  3.4056237363955442e-06  3.5885452250792205e-06  3.0731436534830363e-06  2.4453864517269669e-06  3.5123133614613936e-06  3.2594178982955378e-06  2.6138413342125655e-06  3.2584716736369089e-06  2.6243478178977195e-06  2.1932066742068568e-06  1.0298695995806198e-07  8.3796676618543457e-07  2.7212264215974974e-06  1.1237465908328639e-06  1.9005481894873441e-06  3.3363790218320281e-06  3.5689532012722436e-06  2.7722165996828869e-06  3.3546337818640453e-06  3.0022603742890645e-06  7.1267622394528433e-07  7.6994328253952623e-07  9.0404103366170810e-07  3.4633147488120984e-06  2.7677296236739356e-06  2.3824126574781115e-06  2.9208709719692159e-06  6.5399527590079076e-07  2.4172810620407417e-06  9.2393427377292008e-07  7.9955239237013236e-08  7.0864339970422030e-07  2.2569784458052558e-06  3.3833052951033530e-06  2.7709908267971942e-06  1.0461143325310715e-07  2.6923051804769242e-06  2.5885859944394812e-06  3.1162352420901244e-06  2.9127458577421278e-06  6.5766903763465954e-07  3.0659536459153324e-06  3.3886248614302783e-06  3.1465246721093397e-06  2.9234012669125141e-06  2.7637592906570083e-06  2.3031917700269821e-06  1.8086350653581153e-06  1.9943588911241225e-06  1.5777782800953528e-06  3.1448245765362296e-06  2.7798404482147900e-06  3.4087490768488738e-06  3.0762931018961917e-06  6.1819696833098287e-07  3.2685924978328152e-06  3.2508547512105092e-06  2.4617011852427991e-06  1.5694516847502449e-06  2.2053518373386181e-06  1.5527939025221059e-06  2.7095300587936585e-06  1.3227958700434761e-07  6.0330142585295719e-07  1.3372939351222152e-06  2.4896258232061166e-06  4.5656811106902010e-07  3.6359824886945184e-07  2.2736670171323697e-06  5.6214285317147600e-07  4.2139503422254281e-07  4.3370042625827049e-07  1.5571373638292491e-06  1.0517761556929160e-06  2.2538323496838981e-06  2.5604447162454325e-06  2.5969330836881545e-06  2.5513630633958877e-06  8.6502637367561858e-08  2.8482592386158138e-06  2.4262880871544777e-06  9.7814514232544799e-08  2.5655908408250320e-06  3.2027182643767150e-06  4.9832192008900882e-07  2.9905189869278205e-06  1.4015334032651327e-07  3.0093553458526480e-06  2.4005988851558342e-06  1.0939756345908404e-06  2.4485508375307064e-06  3.0527280885155833e-06  2.0135200828018171e-06  2.6971239529537875e-06  2.0507431916939740e-07  3.0142056238542247e-06  3.4638266853836012e-06  2.6683594849564121e-06  1.6477396600770300e-06  3.0587302672283006e-06  1.0328380213987007e-07  2.2878691508561494e-06  2.4371967372215111e-07  3.2340297585580812e-06  5.9251100656745622e-07  2.1406972392655977e-06  1.7269824208778138e-06  7.0685820859004323e-07  2.8438393862575888e-06  6.2816182490996441e-07  1.6618909395281091e-06  1.2485856089920091e-06  3.4217231598920291e-06  3.1133562089363607e-06  3.2310697686688870e-06  3.5977935338990990e-06  2.5476649119436702e-06  1.3496953804028854e-06  1.6380242174164009e-06  1.3475943259580102e-06  9.9769746941638342e-07  3.2152611762132221e-06  3.0911306690764863e-06  3.3397087666142592e-06  2.5541126711449364e-06  3.0171115726508393e-06  2.3896363229774407e-06  3.3807020894180420e-06  2.6921930300250783e-06  3.1850049952842647e-06  3.6109639848853388e-06  6.7024703454271423e-07  2.3804175163541878e-06  3.3731633744540097e-06  2.9558432741700450e-06  2.7474114490867794e-06  2.9313019538831182e-06  9.4030282299263893e-08  3.1569563265691881e-06  2.4836204400677964e-06  2.2864877956602325e-06  2.4549339644998290e-06  2.4643171750379185e-07  1.1365394026049012e-06  2.2878740208735531e-06  3.1747681678619114e-06  2.8846690781391281e-06  4.5892440411079887e-07  3.3751232405273467e-06  3.5842628214492492e-06  2.4560584406888539e-06  3.5580377149949227e-06  2.2159861769243136e-06  1.0318839162864927e-06  2.6382550498761672e-06  2.7376185202180929e-06  1.3133530988706788e-06  1.4669828061083952e-06  2.4212378065564421e-06  2.2579240893982161e-06  7.4674843975958242e-08  1.5995454367058238e-06  9.7500565221320830e-07  3.4283301763362590e-06  3.2308531034974964e-06  3.4093708225843665e-06  2.7703872679852546e-06  3.0432713302871905e-06  2.5308664956015140e-06  2.5209004600323095e-06  2.0411551421687351e-06  4.7471400961563739e-07  2.4302520400694494e-06  1.8906036631925234e-06  2.7593641331496843e-06  2.4154395339351472e-06  2.2451959908042215e-06  7.8128168763387054e-07  3.1640526317083377e-07  3.1879678312929541e-06  1.1755861502078582e-06  3.5724793596181268e-06  1.8816972940304869e-06  3.1727276194369615e-06  2.5280340454092320e-06  5.2973606956369774e-07  3.5193025594952258e-06  2.0010184377462397e-06  3.2939934032913141e-06  2.4195764834696057e-06  7.9196998719845037e-07  8.5764520734368577e-07  3.2165931027505106e-06  2.6053554050165667e-06  3.1576665406944849e-06  3.3927108253636650e-06  3.4980904985054818e-06  1.1163123558960073e-07  3.0249531073286684e-06  2.5801482181570936e-06  2.7342544402841560e-06  2.1867228316623515e-06  2.4450348494749127e-06  2.7740245626990931e-06  2.6893543788431251e-06  2.9616729993483469e-06  3.0268314816240351e-06  2.9929695637231152e-06  2.6867060454046991e-06  3.1347189316193263e-06  1.2529784712821645e-07  1.7954257403591506e-06  6.9508622506981503e-07  7.0640133521952471e-08  2.4605448760844091e-06  3.4122617156006913e-06  2.8845757497024672e-06  2.1227958739989415e-06  1.1405783614631789e-07  7.8703032955290568e-07  5.2333112890183320e-07  2.9406081885683544e-06  1.7810011462218027e-06  1.3018653554969678e-06  1.0297398979173342e-06  3.5633038612442027e-06  9.7142521217699559e-08  3.0971185259757880e-06  2.0782309592756318e-06  2.8362863622645442e-06  3.1307160871419013e-06  5.3631497406701529e-07  3.9437489908955911e-07  3.3558719263532948e-06  5.2611160292773706e-07  2.7814647911805098e-06  2.3432206277273678e-06  1.4426738710471147e-06  2.5657778296362183e-06  7.6954234357627058e-07  1.2543987481350930e-06  2.4351257994567556e-06  1.1441377646495283e-06  7.9979414275492474e-08  2.5660624247188040e-06  3.5128536815847635e-06  3.6102997092844841e-06  3.3286604999080820e-06  3.2798393460681465e-06  3.0614761310708066e-06  2.3806072547461233e-06  2.8194790726327554e-06  3.4597467947751273e-06  3.4750138005495527e-06  3.2736869185478430e-06  1.5287855486360475e-07  6.6071406889148945e-07  2.8115840186157681e-06  3.1009927869738477e-06  1.3922869429105803e-07  6.1347223796331555e-07  2.7542566401356213e-06  2.7562932568733679e-06  1.0424549105801448e-06  3.9209561986567271e-07  7.1234425000845968e-07  1.0124359688795818e-07  2.1588513964398113e-06  2.3578027326220748e-06  3.5538070552273589e-06  2.2475009230001272e-06  2.2168799688681102e-06  2.6911920894849519e-06  1.2425608089616898e-06  3.1693183629044802e-06  3.2435627279953291e-06  2.7300837560929545e-06  1.4690369965686409e-06  2.8295524847845215e-06  3.1186173655624662e-06  3.0515532329445043e-06  2.7189602361774169e-06  2.7637292617451413e-06  3.5364244742865870e-06  3.0805630511963394e-06  3.5002337752393349e-06  9.5892916661118950e-07  2.6965712178210996e-06  1.7773794204159535e-06  1.6003082128275727e-06  1.5013847323743363e-06  1.3047144890019985e-06  1.3487427588150619e-06  2.7108841540817180e-06  2.8633774713720288e-06  1.7314463021110965e-06  3.3709468905967477e-06  2.3533669944076047e-06  2.2666347258549706e-06  3.5574051561541398e-06  3.4168379906377294e-06  3.2561519738724884e-06  3.4626155767245120e-06  2.4047498923185295e-06  6.7863138296782140e-07  5.9942744617682000e-07  2.3523474397110276e-06  1.5781112743480880e-06  2.2975105949392703e-06  3.0498618301452560e-06  1.7138501110583991e-06  1.5845863716696698e-06  1.9765463659101966e-06  1.9331786461128000e-06  2.0829895639955735e-06  2.3481304672214188e-06  3.5988845211587188e-06  3.0589816577300193e-06  1.7075967004078464e-06  9.0664254570487593e-07  7.0980564521491556e-07  1.8849728218837363e-06  1.2655835097534191e-06  6.9026235959501706e-07  6.6799696314140812e-07  8.3035881863795592e-07  1.2930182554442622e-06  9.7322299127487312e-07  9.0340737675476467e-07  3.4158820391005351e-06  2.1898282208660260e-06  3.2476072466941586e-06  9.8444965687978345e-07  1.7673402343719434e-06  1.5771428610851768e-06  2.5958867935512175e-06  2.3476244199665154e-06  3.3321243047627920e-06  3.2931731597913336e-06  3.0734799095558033e-06  1.8259294482279599e-06  1.6069894425971699e-06  2.0643925279233716e-06  7.1199496518123008e-07  2.2779428862162104e-06  1.7861088179307836e-06  2.3046454234020133e-06  2.4639651711371994e-06  1.9266166437236569e-06  2.3751236554309685e-06  2.1324915091892385e-06  2.3994635412435595e-06  1.4490701917718912e-06  2.6769444671933274e-06  7.9112250635720114e-07  2.0376659554397345e-06  9.9119218317504894e-07  2.1524498857056707e-06  1.4736610495532707e-06  5.6435094504929211e-07  6.7761738066232643e-07  5.8023086995177622e-07  2.6387742827686700e-07  4.4758035601799893e-07  5.8236157004801455e-07  1.5696290319987669e-07  8.5708444262813191e-07  1.1423629939469568e-06  6.4445755493152756e-07  6.3246989699822297e-07  5.9641364587033151e-07  7.5892088254509566e-07  6.9948528226988281e-07  6.9411362242649106e-07  1.6367703889499101e-06  2.0538956819012937e-06  2.5911938294893358e-06  2.6519700113369018e-06  2.1712270720057624e-06  2.5821892681960268e-06  2.4264657713384108e-06  2.4312888661356578e-06  3.0753466109862012e-06  1.6430145591948241e-06  3.2003394990315070e-06  3.4455170873577597e-06  7.7661686915876500e-07  3.3965903071414912e-06  3.0729541641626954e-06  2.1204609863807621e-06  2.7233562294715547e-06  2.6767252193750686e-06  2.7261968057192724e-06  2.8347949273951504e-07  2.4165121915194658e-06  2.1049819425262926e-06  3.3003694481445986e-06  2.8457167059003326e-06  3.5232899290355013e-06  6.1213397870319219e-07  2.7801861387748242e-06  3.1466576846228209e-06  3.3707367526158837e-06  3.6018487036958695e-06  2.8650197611896288e-06  2.1936373043700601e-06  1.7733930991873678e-06  2.7025041342843319e-06  1.3333520618570028e-06  9.1159822090119958e-08  6.3881699845955959e-07  2.6133162943266232e-06  7.1519571316330346e-07  2.6123719809180331e-06  2.8716516563481250e-06  2.4394080685231863e-06  7.8935676966459740e-07  3.5858818246345217e-06  1.3052704013441704e-07  2.1981749703486659e-06  3.4069644661377180e-06  3.3460132732557557e-06  2.1289282980512871e-07  2.6237635844565688e-06  5.4199830468526590e-07  1.7491764785648663e-06  2.1050296611301696e-06  3.1843916906264347e-06  2.8680670145891852e-06  2.4653523428923829e-06  3.5406602038077844e-06  2.7174181695646213e-06  2.8938357197157922e-06  3.3787172063278605e-06  2.9271874964634355e-06  2.8511266279566583e-06  9.2121028794262507e-07  3.4146257394872783e-06  3.3058233709202844e-06  2.3258692603437284e-06  1.6494660824035153e-06  2.9529682764883035e-06  2.8919842413844639e-06  2.5212736597513889e-07  2.4833581370762756e-06  1.2423757248586646e-06  2.2681655931892671e-06  1.3103476898674385e-06  7.0025745604275646e-07  4.4052271767903120e-07  2.2122789575996059e-06  2.3088805555243857e-06  3.0243320305899533e-06  3.5689950361401177e-06  6.5001492035011359e-07  2.8361121093909655e-06  2.7798384307816385e-06  9.9978003493660111e-07  2.7993296841343201e-06  2.4775503351482767e-06  1.5267126842176682e-06  2.6776774112161566e-06  3.5585149901915352e-06  2.8479454893504188e-06  2.5760758079844524e-06  3.4242109546797260e-06  2.2930588886544156e-06  2.3179620736083239e-06  1.5056082512703109e-07  3.2379060967751826e-06  8.6259128480284625e-07  3.5077453334936278e-06  2.9880419370952497e-06  3.4386951696012256e-06  3.5311968712325749e-06  2.7387922460458401e-06  3.1280585988064505e-06  3.0786238484291761e-06  3.1981515440662030e-06  2.5163701124953895e-06  2.4627517320034807e-06  1.0895876193186770e-07  1.1482286300807313e-07  3.3826751851985334e-06  3.0189088481075710e-06  2.3784427488251338e-06  1.9419374367819887e-07  7.2096235865935331e-07  2.4663683067321124e-06  5.6518193264417227e-07  4.6730468545758526e-07  1.0715423470565515e-06  3.1280350754928866e-06  1.6464049781896137e-06  1.9899585402412756e-06  6.5297843618003903e-07  2.5502534576611448e-06  2.4633023850668790e-06  1.1700317810612886e-06  8.9875468652720339e-08  7.8743696508861184e-07  6.7221637581320637e-07  2.7041197599326818e-06  1.7263961181192826e-06  2.7797092470703660e-06  3.4114217911672463e-06  3.2742178790070576e-06  3.0417145465357226e-06  2.9399301846139090e-06  2.7698779725670768e-06  1.1183637044185929e-06  3.5477842943029703e-06  3.5860083811932089e-06  3.1983565582921577e-06  3.2012930812595440e-06  3.0221655077038602e-06  2.5521521663105106e-06  3.1233096942557997e-06  3.0267669203963160e-06  2.0878489006843629e-06  2.5870578171567054e-07  3.8641437901594119e-07  3.2575454702432129e-06  2.3129765597757948e-06  3.5620766458923285e-06  3.4957427317644387e-06  3.0603668320498232e-06  3.5069347773669644e-06  2.4539766409279399e-06  2.7094094027583383e-06  1.2327134547952451e-06  1.3776863234595444e-06  1.7160245779047511e-06  3.2736248288991438e-06  3.3798065749567378e-06  3.0676005496936034e-06  3.3014181696365842e-06  1.2551795632756111e-06  2.0161318315642523e-06  3.4414785090085252e-06  2.5756753488578929e-06  2.3856085340478797e-06  1.7766510007275157e-06  1.2035788440742271e-06  2.8224319846823260e-06  5.4501677616824208e-07  2.8274815037556118e-06  3.1678429327451661e-06  1.1566206549191953e-06  1.8853163624829316e-06  8.4274621636935415e-07  2.8454715186513289e-06  2.7211240632880774e-06  2.1110057270190353e-06  1.1304574646216772e-06  1.5662974369650466e-06  2.4457103143098600e-06  1.7790072886926870e-06  3.1439413865973455e-06  8.8445231539054316e-07  3.4174290485314276e-06  2.8364057537775869e-06  8.0164019965645244e-07  2.7027008655077044e-06  2.1747040137770551e-06  8.1210956057712333e-07  4.2014840228346570e-07  2.4284867346190156e-06  2.6138445923081665e-06  2.9500839620945903e-06  2.6328918460578245e-06  6.1658510854145335e-07  3.3714618746782881e-06  2.7365912967194731e-06  3.3121771330027497e-06  2.2638922500938408e-06  2.6881378581667656e-06  2.7083338397431156e-06  3.1736672924074446e-06  3.1720532195456246e-06  3.1816200320278665e-06  2.7732175813860434e-06  6.7368711038083252e-07  3.6149964713549480e-06  2.0856607847210997e-06  2.2354985987331712e-06  1.8596311442620905e-06  2.2121986779735021e-06  6.1304074485475671e-07  6.8611957826871597e-07  2.5457738414086651e-06  2.1435467460865683e-07  5.9997598667064067e-07  1.6443328653546067e-07  2.8682699626494745e-07  6.1865184676058479e-07  2.2350034925000435e-06  5.4913691331061877e-07  2.9294971667913991e-06  2.9762548553078537e-06  9.5624730987560184e-08  9.3161522476729556e-08  2.6396876851679023e-06  2.4472769518443451e-06  3.6137880736467922e-07  3.1322333152518158e-06  7.8564474598211752e-08  1.5811068320646377e-06  6.9272056688861619e-08  1.3497367595460281e-07  3.2875729133857014e-07  4.0238910803396781e-07  3.2842154443552303e-06  3.1581846077592336e-06  1.2446676419052421e-06  3.5049689026487870e-06  3.1810236638349874e-06  3.4643824788170077e-06  2.4856750094086011e-06  2.4673551016787562e-06  3.4973856689587586e-06  3.4826421509178692e-06  6.3687685630260083e-07  2.5295204748711158e-06  2.8239162536480901e-06  2.7050037535670580e-06  6.8596107474504289e-07  1.5452365729464254e-06  2.5643259431278172e-06  3.2869462341851805e-06  3.2788417402638148e-06  1.7200065786557468e-06  2.8426995195451389e-06  3.2032568151300264e-06  7.2519296745736154e-07  3.3479215078526957e-06  6.5467790668845341e-07  2.4929227378816411e-06  2.6606765024536644e-06  1.1555657848094295e-06  3.4570323223806628e-06  2.9264297462659