<?xml version="1.0"?>
<VTKFile type="UnstructuredGrid"  version="0.1"  >
<UnstructuredGrid>
<Piece  NumberOfPoints="2446" NumberOfCells="4585">
<Points>
<DataArray  type="Float64"  NumberOfComponents="3"  format="ascii">0 0.41 0  0 0 0  2.2 0 0  2.2 0.41 0  0.2404508497187474 0.2293892626146237 0  0.25 0.2 0  0.2404508497187474 0.1706107373853764 0  0.2154508497187474 0.1524471741852423 0  0.1845491502812526 0.1524471741852423 0  0.1595491502812526 0.1706107373853764 0  0.15 0.2 0  0.1595491502812526 0.2293892626146237 0  0.1845491502812527 0.2475528258147577 0  0.2154508497187474 0.2475528258147577 0  1.1 0 0  1.1 0.41 0  0 0.205 0  0.55 0 0  0.55 0.41 0  0.275 0 0  0.275 0.41 0  1.65 0.41 0  1.65 0 0  0.8250000000000001 0.41 0  0.8250000000000001 0 0  1.375 0 0  1.375 0.41 0  1.925 0 0  1.925 0.41 0  1.5125 0.205 0  1.7875 0.205 0  0.6875 0.205 0  0.9625000000000001 0.205 0  1.2375 0.205 0  2.2 0.205 0  0.4687002074688797 0.2068568464730291 0  1.99375 0.2152743902439024 0  2.0625 0 0  2.0625 0.41 0  2.2 0.3075 0  0.4125 0 0  0.4125 0.41 0  1.7875 0.41 0  1.375 0.1486128048780488 0  1.5125 0 0  1.7875 0 0  1.5125 0.41 0  0.8250000000000001 0.2613871951219511 0  0.9625000000000001 0.41 0  0.9625000000000001 0 0  0.6875 0.41 0  0.6875 0 0  0.1375 0 0  0.1375 0.41 0  1.2375 0 0  1.1 0.1486128048780487 0  1.2375 0.41 0  1.65 0.1486128048780487 0  1.126715909090909 0.2793064024390244 0  1.676715909090909 0.2793064024390244 0  0.8517159090909092 0.1306935975609756 0  1.348284090909091 0.2793064024390244 0  0.34375 0.3032389320646208 0  1.894702181800738 0.1282910975492754 0  2.092797818199262 0.1282910975492754 0  1.85625 0.3075 0  0.61875 0.3075 0  0.61875 0.1025 0  0.3648540804333487 0.1240075933101478 0  0 0.3075 0  0 0.1025 0  2.099172119769978 0.25625 0  0.48125 0.09238439620688085 0  0.5781001037344399 0.2059284232365146 0  0.48125 0.3196743479159776 0  0.7265881057911006 0.3055240343720796 0  1.99375 0.08395950269330846 0  1.459960956013612 0.3075 0  1.569025960719943 0.2986889805672169 0  0.75625 0.08213100772579164 0  1.03125 0.3278689922742084 0  0.923871252904788 0.3078247185783941 0  1.959375 0.3126371951219512 0  1.749222215368287 0.1025 0  1.275777784631713 0.1025 0  2.2 0.1025 0  1.225938124459196 0.3075 0  1.550777784631713 0.1025 0  1.000777784631713 0.1025 0  1.44375 0.07430640243902442 0  1.16875 0.07430640243902437 0  1.899250267340833 0.2229966846119207 0  0.1020898364287272 0.3140258291809757 0  1.766482954545455 0.2934032012195123 0  0.3405058858996321 0.2119987970531874 0  0.7710785630958338 0.1710968191298857 0  1.046078563095834 0.2389031808701144 0  0.2 0.3400647632937836 0  1.421109702350723 0.2261157654379721 0  0.2800464974185557 0.08982544815605742 0  0.098916018031319 0.09171660955420841 0  2.13125 0 0  2.118919042110979 0.3422084711244843 0  1.30625 0.41 0  0.89375 0 0  1.597888256393107 0.2173787389261347 0  0.20625 0 0  1.829299675393195 0.07400700849299596 0  1.71875 0.41 0  1.16875 0.41 0  2.038220665644273 0.332420740103091 0  0.34375 0 0  0.417496017710808 0.2696595573092803 0  0.2 0.07687845740457822 0  0.9295982307099278 0.1343158415898188 0  0.07390688010811153 0.1697064032433452 0  0.5238366813727013 0.2578302467013575 0  0.05452951551825875 0.25625 0  0.5229630068078351 0.1548816096928243 0  1.452769549894695 0.1548122580621249 0  1.369219062229598 0.07430640243902442 0  1.30625 0 0  0.8504409521244898 0.3356935975609756 0  0.8821881244591965 0.205 0  1.720943423819132 0.1714577452753128 0  1.157188124459196 0.205 0  1.094219062229598 0.07430640243902437 0  1.03125 0 0  1.304056576180868 0.1714577452753128 0  1.67579304192913 0.07430640243902437 0  0.2751941921308361 0.3346083473122598 0  1.209670467133757 0.1362100266964769 0  1.025335513626278 0.1700681449722324 0  0.7562500000000001 0.41 0  1.58125 0 0  0.7567170593862014 0.2409196493502535 0  0.6926714215682891 0.1272249611432207 0  0.4139715849905988 0.3397932387114203 0  0.9840787304190477 0.2717749043358119 0  0.06875000000000001 0.41 0  0 0.35875 0  0.9281250000000001 0.06276726142697993 0  0.5507396469029935 0.3219409231578227 0  0.5504468037989405 0.09136885600634273 0  1.58125 0.41 0  1.631724228912893 0.3381867502687533 0  1.825608881788174 0.14499488549201 0  1.85625 0 0  1.44375 0 0  1.44375 0.41 0  1.85625 0.41 0  2.13125 0.41 0  0.7562500000000001 0 0  0.89375 0.41 0  0.4812500000000001 0 0  0.34375 0.41 0  0.4812500000000001 0.41 0  0.20625 0.41 0  0.06875000000000001 0 0  1.16875 0 0  0.61875 0 0  0.61875 0.41 0  1.03125 0.41 0  1.71875 0 0  1.99375 0 0  1.99375 0.41 0  1.340625 0.3489494290853124 0  1.134375 0.3489494290853123 0  1.700180620188976 0.3438659752031281 0  2.135782184673599 0.07126652247502523 0  1.668441847249787 0.2129203728327609 0  1.295782514339747 0.2378437748815763 0  0.8233075729931248 0.06842334294821524 0  1.409375 0.3520314716057996 0  0.403505597322782 0.182067236678212 0  0.378125 0.05794951541303489 0  0.3043468223249023 0.1518321115979534 0  2.129248544730567 0.1906135162504124 0  2.060771381434487 0.1989445750470348 0  2.013252586573865 0.1496169464686054 0  1.942766402200229 0.1734448904596831 0  1.895522487186454 0.06076163953489683 0  2.069553871656643 0.06605731020975725 0  1.274680914880868 0.3520219391081363 0  1.614713220494657 0.09473434380863296 0  0.7899021319497519 0.3149123934144827 0  0.69518737419149 0.0634051089053758 0  0.2971740475496061 0.2592172353407536 0  1.72990325744076 0.2380068107952482 0  1.356580098625191 0.2120393231351682 0  2.034370752044885 0.2668681600792073 0  1.51768709249349 0.3426260931494756 0  1.561883724969884 0.1650446847858835 0  1.197344062229598 0.2523725417393646 0  1.804085235518364 0.3468178408964637 0  1.817887819205233 0.2589243285818559 0  1.905897727272727 0.3485060975609756 0  0.6719798073392919 0.2688965171178177 0  0 0.05125 0  0.653125 0.35875 0  0.6396896119294488 0.1627615407790282 0  0.4274150154087412 0.1242548552168279 0  1.192836486056382 0.3562350748565544 0  0.8279124365364005 0.183856489168822 0  1.097485222388854 0.2083571153401724 0  1.28257088594801 0.2944411014911587 0  1.474860187679412 0.2504218616229368 0  1.406767003493824 0.2829282258560709 0  0.446875 0.04619219810344041 0  0.515625 0.04585361801037557 0  0.592043440706648 0.05125 0  1.845656689180403 0.1998310418452388 0  2.144958525570388 0.2909790873294231 0  0.6171090763650112 0.2492366900333857 0  2.2 0.15375 0  0.5145586920831158 0.3648371739579888 0  1.57794966442982 0.3540357145964566 0  0.721875 0.3633107922168974 0  0.0496154796471391 0.333125 0  0.5843750000000001 0.3662560860076676 0  0.5810878747760798 0.1474002776121195 0  1.508991196088596 0.1421783375065625 0  0.8840670607017558 0.2640994375393898 0  0.09776612425612034 0.2204896805326566 0  1.50436820029908 0.06143401634903343 0  1.223857000523521 0.0823554862453532 0  1.153316824384777 0.1289850171317837 0  2.148922302309752 0.1258841779285271 0  0.309375 0.04312325590431198 0  1.621993280276081 0.2841214267927899 0  1.550118654119087 0.2461998729100966 0  1.327182649291491 0.1216967252533594 0  1.051977450479407 0.1221382572915816 0  1.753125 0.04556020050186112 0  1.271875 0.04556020050186116 0  0.9816084133102366 0.05126138213476004 0  1.039051841454368 0.0572224914831029 0  0.9719230514536006 0.3480477870845102 0  1.94956388244759 0.1180512551534177 0  1.949997712993411 0.04965831614304109 0  1.771961817615021 0.1530278789497521 0  1.909246823951428 0.2812757146784527 0  0.2459536687882397 0.04668633953831142 0  1.948575539857022 0.2445328248721197 0  1.697271520964565 0.1233917627620729 0  0.7964897648514618 0.1211426571931604 0  1.065625 0.3689344961371042 0  1.085849084308977 0.3170853572226867 0  0.4702981435440001 0.260434880697798 0  1.577403511714593 0.05463601888079143 0  0.05622663515370135 0.05493816910862376 0  0.3267207591099919 0.3566194660323104 0  0.9003051618565143 0.3564049499960621 0  1.751571320346033 0.3651102912045228 0  0.1583785085108421 0.2994699345738728 0  0.1455283439499995 0.3542795598723423 0  2.2 0.35875 0  0.2347662494194072 0.298325008655211 0  0.1527284455616188 0.1065771775690181 0  0.1382139529076665 0.05427454456341477 0  0.8749341636311069 0.05110114999892954 0  0.643661668713109 0.05693499781019222 0  1.466879772203159 0.3611261772912453 0  1.990280163552011 0.3564754268533217 0  1.17471064520912 0.2990917256188288 0  0.5202693090594349 0.206382495511728 0  0 0.25625 0  2.2 0.25625 0  2.2 0.05125 0  0 0.15375 0  1.853978576207987 0.35875 0  0.9787513713939683 0.1487523696999336 0  0.240625 0.3722153812029779 0  1.515638456102889 0.2882700110184686 0  0.09048297387599738 0.3637717362208066 0  2.150453692751374 0.2387066338105111 0  1.323782677156475 0.04897634338873398 0  0.8074131292871642 0.3624701995505916 0  1.409375 0.03715320121951221 0  1.406484531114799 0.1087852750766809 0  1.134375 0.03715320121951218 0  1.627401732573545 0.04552157221025036 0  0.1170173172005315 0.1427610859166811 0  2.045405893604797 0.1105340662939892 0  1.255408269734577 0.1577307500159216 0  2.028125 0.03707597992059326 0  0.4743610090857199 0.1421513964721819 0  0.9354010469015898 0.250631300585664 0  0.04420832937638274 0.128125 0  0.8922386349349938 0.0992956419364831 0  0.1197849154434487 0.2663398672460083 0  1.248258025468107 0.2565907092181813 0  0.3746885856929528 0.370723531618974 0  1.203125 0.0366132337404304 0  0.5724622277005015 0.2751253816079333 0  0.3365425205162783 0.08395777655057959 0  2.072662025974815 0.2975086504196739 0  0.4581080832182547 0.3648371739579888 0  0.3874522734668214 0.2295447548840689 0  0.7827853612484443 0.04106550386289586 0  1.887722846421017 0.1760882698830035 0  1.472640588990488 0.1118278026240017 0  1.865937103925594 0.2604137786483804 0  1.463913572748262 0.2030442564990043 0  1.376426316059077 0.3186741374914345 0  0.6641993820150034 0.3141688596240831 0  0.2943117490824315 0.2130987422685822 0  0.3478153998082709 0.1666571081082676 0  0.3427990510599805 0.2575950027870776 0  0.7997118993855807 0.2216171933356366 0  
[...]
<PointData  Scalars="f_10-2"> 
<DataArray  type="Float64"  Name="f_10-2"  format="ascii">8.9841854256458529e-11  5.1731335835871745e-10  7.6252832666579706e-32  7.2577251577286486e-32  5.4355322348553656e-07  8.4563713563598064e-07  5.4302634187329264e-07  1.2797817017139324e-07  2.6043701913852331e-08  1.4171338391120713e-08  9.1729824192602949e-09  1.1409354597084468e-08  1.7235021730420501e-08  1.0666220910549255e-07  3.3280361424461303e-12  2.5881381438145821e-12  8.5632882833597259e-10  3.2135550803790730e-08  1.9378422905098888e-08  1.9271466430192695e-08  6.8782890988300398e-09  2.7884375366961291e-21  2.6987196483053568e-21  2.6797689362176633e-09  3.6535775047440270e-09  1.9905481690912984e-16  1.6492235921202089e-16  2.0342530568323681e-26  1.6087328256545303e-26  1.2491074858068411e-17  1.1088634074684303e-22  5.3099278104269157e-07  3.7768730704057902e-09  5.4954860460490368e-13  1.0146898863078084e-30  1.1474770220461954e-06  1.0320920663586762e-26  3.7208650253760529e-29  2.4913931496808171e-29  5.6896837645038185e-31  2.6252225637017214e-08  1.3302484069942236e-08  5.2168460229571692e-24  2.6178847877837968e-15  8.7586756848214548e-19  6.7115219923415815e-24  8.0162817153139467e-19  5.7496847467447668e-08  1.3347543040798957e-10  1.7933487704941790e-10  1.3729962344852457e-08  2.1342388179960013e-08  6.8411090184560396e-09  1.5310656646284164e-09  3.4379574567790117e-14  5.5016588560031986e-11  2.7928006207418423e-14  3.5818497623549896e-20  1.7642471312262657e-11  9.7681591770423334e-21  3.2841399719632754e-08  5.9362092991408386e-15  7.1934458750375656e-08  7.3393314559255489e-25  8.3879175301372210e-29  3.3400864740618954e-24  2.3431401279424737e-07  3.1457156075592120e-07  1.9973594692837018e-07  2.7556130039546614e-10  6.4680856433886554e-10  7.6225986225644747e-29  2.0071401863740420e-07  1.0398735158985751e-06  1.2304281933452005e-07  1.1974650815529169e-07  5.9819006240027718e-27  5.8463380062573544e-17  7.5430552765252758e-19  6.8985948272444948e-08  1.7179898235608924e-10  3.9954051915123358e-09  3.2314394367584766e-26  3.8278110993569784e-22  7.8916403590403107e-14  7.0392023125564104e-31  4.2290336081654313e-13  1.7004007073642198e-18  6.6619467269836384e-10  9.1382693907705018e-17  2.3048648845395960e-12  7.4053196441092654e-25  3.9518162615097150e-09  1.8568984688012740e-22  8.0385440790218478e-07  1.8216513382884903e-07  3.2063370660999128e-10  1.5213231019217854e-08  4.6737516351406758e-16  5.9026937036015741e-08  1.0318985507608743e-08  1.1422404451618571e-30  1.3681335090397900e-29  2.2056742991491459e-15  8.8547728415117107e-10  3.5157835196274109e-19  1.3741864829262177e-08  8.4439431546154407e-24  1.5309217602727382e-22  3.0114548865363817e-13  6.2470184545369284e-28  2.3580404431786188e-08  3.3960753994503522e-07  3.7842171048555893e-08  6.2758335643886919e-09  1.2237743534140233e-09  6.9918108331139345e-07  6.9230354112574828e-10  8.8194616658381994e-07  1.2572323861058852e-16  1.6043782140552172e-15  2.3617520794922723e-15  1.0462218679044779e-08  2.5698879210172361e-08  1.8603420576353540e-21  9.4487131447954384e-12  2.7108895337306999e-11  2.9367679566335328e-11  4.3874705912273409e-14  6.5752477596394806e-21  2.4816050289723717e-08  1.1733448176269168e-12  6.2179854750632789e-10  6.5949249992360736e-09  5.5920168534642068e-20  2.0360484711137105e-07  3.0555661145823707e-07  4.1271859962165846e-08  1.4343323339900721e-09  3.0926803312299747e-10  1.1792254853644135e-10  2.0375282647849377e-09  1.6132616745375663e-07  2.5665111859104513e-07  4.7235934805133433e-20  3.5448635608974771e-20  1.7704585878947785e-23  3.5144888382538226e-25  1.1246390446075374e-17  1.3316463173389500e-17  3.5645425774452544e-25  1.2069423739175243e-30  1.0201828383924621e-08  6.7222422409774570e-10  2.8586087059630157e-08  1.0104043512425640e-08  1.6104735679562919e-08  3.7134993718903789e-09  1.7665690027611431e-09  3.9570163812779793e-13  3.0618390505656761e-08  1.9480363025591598e-08  2.0468675351710682e-11  1.4830955773585987e-22  7.2987659403002048e-28  7.1969223844344014e-28  3.2533576836795033e-15  4.7549669905799623e-12  1.7413310207291193e-21  6.8668609866294684e-30  1.7972975245368405e-20  5.9262620409568756e-14  1.9038895865250474e-08  2.2710705154556300e-16  9.3815078360596160e-07  4.5296975802177041e-08  3.3884399292636188e-07  1.9848038562070072e-29  4.7098056356387965e-28  3.7411535769240972e-27  1.0436848288612148e-25  3.7965285864494762e-25  1.3972260901665567e-28  3.5853240154232458e-14  1.0961703273284135e-19  4.4448480763440499e-08  8.3128398786605725e-08  2.3660729164001213e-07  1.2668442730466720e-21  6.0386289815707872e-15  1.3779844862756291e-27  3.6007341663797189e-18  1.5630444575493179e-18  2.0100138858556995e-12  1.9333027066276584e-23  2.2944404790892182e-23  2.0660170606333138e-25  3.6613611432814020e-07  5.0761180842244732e-10  5.1705073107885196e-08  6.7611743287011163e-07  3.3392867137377645e-07  5.9152176178911550e-13  7.5408175295943990e-08  7.0852335255173978e-11  6.3518850959692504e-14  5.0927427515522074e-17  6.0170898781625626e-16  4.5557228133367609e-08  6.6539151206149293e-08  8.9005101926012183e-08  7.9235892042537312e-24  7.3964927205395298e-30  6.5951685633215618e-07  8.7916149166324121e-31  3.7281822270621725e-08  2.3446161348506414e-19  2.9333687183000240e-08  3.3135162264159103e-10  4.5683909908921384e-08  7.5008387265153940e-07  1.2256260114785048e-17  1.7603509113310240e-08  1.6251984830454329e-09  6.4040542001908403e-18  4.0337785164495342e-13  8.0263669758835672e-12  6.2375018435723622e-30  3.0639622469789255e-08  9.4941473794280454e-20  2.3556883638059850e-18  1.3421723371380576e-14  1.9715993737243655e-10  1.4210131668079668e-22  3.6060081468504180e-14  4.2542299487258107e-10  9.8805645185129709e-11  5.4876607525310212e-10  5.7635516272961571e-26  2.5420183413694166e-26  1.9237719854760053e-22  3.6621036748646942e-25  2.8366294227712362e-08  7.3694574504320534e-26  4.1367299034637538e-21  7.7650105719513375e-08  2.5096345920220750e-11  3.9773095548092884e-11  5.8356221212765437e-07  2.9293680750520872e-19  1.4833395796784893e-09  1.8295386943396067e-08  2.3515268605333600e-09  1.2109291435375744e-22  1.6287242915775193e-08  5.2408237972820008e-09  2.8753085332588552e-31  3.4786802106052948e-08  2.8685761778852006e-08  1.5024215481865534e-08  4.9028371126908526e-09  9.3268201288930614e-08  1.9930457921460099e-17  4.0569890509169187e-27  2.7822082366081203e-12  1.1671241697217861e-06  5.9310529279902011e-10  8.5689517541317813e-31  3.4638227564522684e-31  9.0297829363166395e-10  1.7233814027059854e-24  2.0247289508023035e-09  8.8173761014892771e-09  7.2371465409953335e-18  9.3977181734829325e-10  7.3101794149329622e-30  5.9004805307848660e-15  1.0947227876240564e-08  1.5626261799753669e-16  5.7683847562313878e-16  3.1747017766048588e-12  3.0569037211678490e-20  1.1728961747370590e-08  6.9130076775520404e-28  2.5361613272097469e-13  5.3360517801349441e-28  6.6165922211123675e-07  6.3087367502856934e-09  1.2380968593914089e-09  9.2976545976849356e-09  7.8982468660442093e-09  3.1296499895244646e-13  1.6509030205772184e-08  3.3079748049496179e-13  5.0613033342587507e-07  6.5388423274492119e-08  1.9633986961559853e-28  2.7998649759717871e-08  7.4580486069391509e-07  1.7900320706638243e-08  1.2702817085590426e-24  4.2220452173379782e-17  2.9084410622817416e-24  8.7329756603733723e-17  1.3469416061183021e-15  1.6399608630872557e-07  7.7255050646534122e-07  5.6499684846241825e-07  2.6553049318185454e-07  1.1911946511434899e-07  1.3366816272825809e-21  1.7275273288399807e-22  1.5664596698930780e-29  3.4238058471552830e-07  1.8114030902932749e-07  1.2421616938854959e-09  3.6326816075201750e-10  7.4960219458336999e-11  1.3453247891339189e-15  1.6315502053642406e-07  1.4265905994163706e-28  2.5680533264210168e-19  7.6257472391974650e-07  3.4288289099941683e-07  2.3169896034007065e-23  8.3568287430194646e-10  1.0716524669505454e-26  2.0151969419189727e-30  5.6398575434740159e-30  7.2227356877951536e-29  4.4268416756735964e-09  3.1906494418979342e-08  1.1592414223770278e-20  6.1204449351636060e-23  4.0938426007969006e-27  1.0353788110976341e-08  1.9937829407529682e-15  2.2854594567093822e-12  3.2761111852101445e-18  8.7862359775484674e-20  1.9663286720135497e-19  1.3102882291998314e-09  5.7802263412221626e-22  9.8633904397220909e-22  5.7691471202131844e-11  1.1404675376622259e-10  1.1210607230295990e-30  1.0146956044270208e-30  1.2727478499444862e-10  2.1116977239049539e-07  1.6848245400335420e-08  1.0175845965230264e-08  2.2519425450287262e-08  6.8251939028047475e-20  2.0142482330883156e-23  1.9597639727405342e-24  2.4226536898555498e-19  2.0837366526177085e-26  1.0040552967830852e-06  5.0136650401706959e-08  1.5257587235819714e-24  1.9459566066242567e-11  5.2540489725896063e-22  5.0930355810783985e-21  1.4931381948745161e-09  9.2075380236217687e-08  2.5891766991697499e-09  5.2782750737501514e-28  3.2853962414178990e-10  2.2875131843426647e-18  1.0123037154751559e-13  9.7131298574895593e-29  1.8076988627356241e-17  1.8125079244872712e-08  1.7132604594630455e-10  9.6414547467497939e-07  4.3331410318482958e-19  9.8568445677855704e-08  9.5635760825951329e-08  1.3335894479141751e-07  2.8157311648858599e-07  1.1019337419908381e-11  4.0393512111154632e-08  2.2681455864847405e-11  1.7714964611086914e-11  2.9600124581415681e-09  4.3445889473796371e-30  1.2049329803679858e-14  3.7528216304762841e-27  2.2495325914550749e-08  7.1285980335456548e-26  1.3878340458947465e-24  8.6031449179248962e-26  1.1021562365208585e-25  8.4371320907804329e-18  1.5708772602096706e-21  4.6722550134539424e-21  2.4508327012180752e-20  7.5398974669803564e-10  7.3495836742529812e-09  6.0227771866089804e-08  1.3018133178889477e-10  3.4616547327145909e-28  5.6751272571401943e-16  5.0415573645400651e-07  6.5127388210285471e-10  1.2885224249977736e-09  6.1245536089982867e-08  2.5408459886064820e-08  8.2396208276221491e-23  1.4571620357708082e-07  6.9451656265962563e-10  6.6207238130124545e-08  3.1069781617522076e-17  8.8580479742051756e-10  6.5268020530108611e-12  1.7734457531029279e-08  8.9187203582335841e-28  1.5008901577238781e-16  1.0822643046529565e-08  5.2657971476600166e-09  1.0592260460046788e-17  8.4466836836861367e-09  9.0139011900259129e-07  1.1090616279602026e-06  4.7351400196073083e-07  1.0366429925767520e-06  1.4582248288469097e-07  3.5742503484090660e-07  9.8033410172558800e-07  3.2054614140494855e-09  4.0544939879829821e-10  1.2780104260396648e-18  6.0902138696794982e-22  1.2400501882350250e-13  9.5902472641021755e-22  5.5064273267558983e-14  2.5264404951952494e-15  1.0515721639337973e-15  5.6462357173247882e-11  8.3559361581189005e-21  1.1099271578596867e-14  2.3488052325094346e-26  5.5663433874855633e-09  3.2692382695164647e-08  1.5893729019999878e-12  3.0467995320922469e-13  2.9107087199200677e-09  2.1331528156159584e-08  1.6180870664220651e-19  9.6052800617534520e-21  2.7357293214061258e-07  3.7160725330887762e-08  1.6471413586428911e-07  6.5148655672946100e-10  9.6858612540055224e-07  2.0775056064672936e-20  3.9780068935902595e-19  1.0622791418462771e-18  4.2122570291292750e-07  1.7074193988698122e-24  4.8281293539583252e-08  4.1943123296342297e-28  2.2220991663858998e-27  1.7425396056456888e-14  6.7955958898549908e-07  3.9079992517560567e-29  3.4079435547998023e-29  4.0628111971683870e-30  1.0246684488893934e-22  1.4618992547863058e-18  5.9043491036699135e-10  7.2341357063987494e-10  1.7208361282612733e-09  4.3953251037646201e-08  3.5617615323989927e-16  1.4751482890847602e-11  6.0203712911208919e-10  1.5987858331159485e-09  1.9007031775717997e-09  6.1451821789010842e-09  2.4351797637681699e-30  2.0913363895189481e-29  1.0763444187626518e-10  5.6213954453446778e-26  1.1141701831635512e-29  1.5379358740421089e-07  1.8823095800300058e-12  8.7816640648859044e-09  3.8623546600023649e-24  5.4452034810618998e-23  8.2352306045087113e-07  3.5858647897049714e-08  1.8645840527192974e-08  4.1017745139001558e-09  7.4457819666952876e-07  1.9626364073569148e-09  9.8875493065131002e-08  1.0542693892843303e-12  9.5582130512071409e-13  6.4797370175862186e-15  5.5628820554435114e-16  5.8955799154580344e-16  7.3722493051320682e-12  3.1529425369370606e-16  2.5636928101748296e-29  8.2162359605299698e-14  4.4247451063131348e-09  5.4381696259499746e-08  9.4529089099936247e-07  4.6560591575450492e-07  3.5327479749057248e-08  2.4782401725988867e-08  1.1225423396278551e-07  3.4643624789564842e-07  1.3828210072712968e-07  8.9848099575985038e-08  5.3544751119861672e-24  8.8895168213325903e-14  2.9310415145099336e-09  1.8193570623985425e-07  5.8470446133237549e-07  3.9961991414365698e-07  3.5619687840105608e-16  5.4377874864298717e-22  1.0761045339948130e-26  2.0644792837498644e-27  3.6721480236792796e-26  7.2275643955939541e-15  3.7450506465816366e-12  9.8552855588118662e-13  4.2340325055028066e-08  6.4925876755290293e-16  1.0216679094486497e-11  2.4200627118025366e-31  5.9494339120726701e-30  1.1634200302011622e-12  5.4622370628315686e-17  3.3030955320134374e-18  3.2990002377090166e-23  7.5293936044889971e-12  4.0399061416024457e-23  1.0388951623611947e-08  4.0373997608499810e-17  1.5513857442260390e-08  2.6127111804242911e-31  4.3506154949393103e-10  1.1677433655089680e-08  2.6830624086149219e-08  1.4473761750972305e-08  3.8531676764987164e-09  5.2442100935792145e-09  1.6325096650308897e-08  7.4555750326629934e-10  2.5924581624918569e-08  6.2980681680044179e-09  2.1616763201868596e-08  1.9361586585053189e-08  1.7475469817377695e-08  3.1613328999617911e-08  2.9640376109922205e-08  1.6015319442558271e-08  7.7825855905565859e-11  1.0256317393388128e-13  1.2628918248353213e-20  3.6501420986364812e-27  8.9213238106429750e-15  1.5955704908141928e-28  3.2785132730846485e-27  4.4140707937169515e-22  3.3001935594739797e-27  3.7572068455701313e-08  1.8236114252327984e-16  5.3716479993625859e-12  1.0016559950555236e-07  1.3392932397913322e-14  2.4971022609735994e-14  2.1191190095376907e-12  2.3002932956018909e-18  1.3450712931226279e-17  1.0509285457375230e-25  1.5188885509743297e-08  8.0418526419892156e-17  5.9250952693409271e-17  4.0138595021132601e-21  6.1605871668775739e-25  3.6157197774824154e-21  4.7476863154958843e-08  5.5892532445305359e-07  1.2655394407437237e-23  1.6648442174555899e-20  3.1857985556894923e-14  1.4398196768300425e-25  3.9594952222744859e-18  2.6859802433935713e-08  1.1275128341297625e-10  1.8665567025807358e-10  7.4249421935233140e-10  4.6463259984988532e-08  6.3470758481479459e-20  3.3907995976737604e-08  1.0450043764528822e-28  8.8752999890338938e-29  2.2129661349389262e-10  2.7314132943165093e-08  4.5359869838174789e-15  2.5903425151514445e-09  1.3775198924819072e-13  2.4414491023103052e-25  3.5192246129167151e-25  1.6306341237512338e-09  7.5052649407295687e-29  2.5901662228716850e-08  3.2041323800404812e-07  2.3909983728388585e-07  1.4022215973933981e-08  9.3699028448253935e-28  8.6500216241112782e-24  2.1701002103380141e-10  6.7951673281558176e-24  3.2911279070114894e-21  8.8276974165631166e-24  2.4518529870776476e-26  2.8424219996759509e-30  1.7776565949570272e-07  4.4384341271787296e-09  9.1000090370807962e-19  3.9333622933172385e-08  1.5515045022441237e-09  4.2217299588211121e-19  2.8106482668962987e-20  2.1145252311495122e-08  8.6047587345438382e-26  4.6994446847622923e-07  2.3044101025207191e-19  5.4945534847967562e-07  1.3240681592030328e-07  1.1609272377911122e-08  5.8738951239727873e-07  6.4608093122842134e-20  2.2787197987985700e-11  5.2021966721225070e-18  3.5804467398422700e-08  5.8552940345585375e-15  2.5339566869063835e-09  2.9985754298921774e-08  8.8658999495477409e-07  3.7597593084649053e-25  1.5051926721605856e-07  5.2812489295426540e-26  7.6000118996350024e-13  1.3100637729947060e-08  2.4260044184703014e-19  3.7026202645532140e-23  7.5146076327171223e-11  9.4374308101611825e-13  6.0205643381341263e-09  5.0998803234363900e-22  5.3987782688189590e-08  2.3689949136554297e-13  7.1565479443898241e-13  5.5546523403574919e-12  2.3366455090138990e-20  2.4538668189939929e-17  6.1728177778055519e-23  9.3524501271072799e-24  1.1005100183138741e-28  3.8859007356682180e-18  3.6473180003486687e-27  5.1169956324667254e-10  6.6286410368961864e-10  3.2774810644855369e-18  4.5154083176881620e-25  2.9275857087160595e-14  4.0345704650134172e-09  6.2797855308502205e-08  1.0017116367279578e-18  1.7672330659584388e-08  7.8093531533476528e-09  2.6204478235360631e-07  1.3825214603472904e-26  6.8409565620301332e-07  1.3376169116813363e-15  2.9337475072609172e-08  1.0714557561042250e-13  1.4871947947115852e-24  8.0248117646998728e-10  6.9092763583070474e-10  1.2103496273629392e-07  2.8486157129103926e-08  3.5392808189718510e-29  8.0790814432434459e-08  5.3602892507395423e-24  8.3158071672957984e-13  7.6628928094334698e-20  1.4113163992741843e-24  9.2420696660137896e-31  4.4617346551397436e-11  1.9075215902772927e-07  6.8711880614506687e-11  2.6891910565057343e-11  4.4157023034620394e-08  3.6053246783176211e-20  6.5402071549689830e-07  1.5943451163461863e-30  6.2619784404033068e-10  3.4624766512704985e-28  3.1318155850517071e-10  3.2733803592601615e-09  8.0725111120316317e-09  7.8652053386441512e-25  9.3829180050038528e-09  1.4868868572895469e-15  1.3787830742419275e-16  4.3957703698031647e-17  2.5715253823074432e-17  3.8646231029573550e-17  1.2699446186861178e-24  8.0092866969437706e-09  7.1351289689499051e-08  3.0256998759425099e-10  1.8333815584818719e-07  4.8847142130526500e-08  1.9308170559413945e-15  4.3613044888862255e-16  3.0506536697543769e-08  1.0131578058429909e-11  2.0844134111438775e-24  4.5773308644923704e-09  5.2992357374961311e-07  4.4523034517116493e-07  6.9391772719152264e-08  7.3163267210753593e-31  1.6416676609154818e-08  2.1059512968549414e-13  9.4256841499651990e-14  6.7976360590654699e-09  1.2743002602835135e-14  1.2749295892068639e-08  5.3198298762988614e-22  3.2981063653488757e-08  1.3932471794073258e-11  1.5010775793244841e-07  7.0911375414160203e-07  8.7778430171689401e-28  4.1598320927657476e-11  7.0611447900014504e-08  1.1502350694083075e-07  3.9311243377057677e-17  3.5473370467973940e-20  9.6048335510076437e-08  1.4563327278295128e-07  1.0525127469391515e-07  9.4523766747196156e-08  3.1136682697716974e-08  2.8170592798263862e-23  8.0317659053245003e-30  1.7121047488695093e-29  1.9166898286984807e-30  2.3167455536315819e-08  2.3830615268346126e-24  7.6397593304390458e-27  2.6694033292684850e-10  7.9027456717681490e-15  1.6158906519178285e-22  3.1477554986573612e-23  3.1309888396135859e-19  4.0193641220141397e-07  3.0740558110397208e-12  4.2374101760592427e-12  4.8965292945265604e-08  1.2377206420035787e-14  3.1319228343222257e-13  1.0466399974580423e-10  4.8561280440443788e-11  5.3018101960030591e-08  2.3880536378928433e-08  5.0030708042166960e-08  3.4965345355227076e-14  5.0281279974522629e-09  2.9497155595567926e-08  1.8149515377832332e-09  2.5769333400108213e-09  2.2567700738977127e-08  7.9837143094299977e-12  1.0680487355428498e-08  2.3141891654738774e-07  8.8335303182744625e-31  9.2092115630489410e-10  8.3248267201886344e-10  4.1901200664584648e-19  7.5136640342275158e-20  2.1230891465051983e-08  2.0819678221055373e-25  3.6003895707789773e-10  6.6029323178005653e-07  1.7428003930290454e-10  1.4378301652065199e-09  1.8454036709857939e-08  1.7929649538153850e-08  1.0183724439141266e-25  1.2073840954523622e-28  2.6972120702769262e-07  5.9045541868011071e-18  1.1062872235515293e-18  8.3844485035370151e-19  3.7325060793994823e-15  8.8547189296661861e-13  1.5105522530577006e-19  3.0330592475887425e-23  2.6585933144098177e-08  4.4923728779533043e-23  9.8927991723566131e-26  2.7604536530649641e-26  4.2478771032491578e-08  6.5045635781772924e-07  4.8946884702154615e-22  1.2482152836149276e-07  2.9530842210827297e-22  2.9773988250413590e-13  2.0468580288678286e-16  1.1456625819064567e-08  3.9110678678613352e-08  1.7897343198065374e-24  2.4607078291221877e-08  1.0384139862595973e-13  1.1252945959143624e-06  3.2686717276722770e-07  6.9514444567285666e-21  6.5092326061969