<?xml version="1.0"?>
<VTKFile type="UnstructuredGrid"  version="0.1"  >
<UnstructuredGrid>
<Piece  NumberOfPoints="2446" NumberOfCells="4585">
<Points>
<DataArray  type="Float64"  NumberOfComponents="3"  format="ascii">0 0.41 0  0 0 0  2.2 0 0  2.2 0.41 0  0.2404508497187474 0.2293892626146237 0  0.25 0.2 0  0.2404508497187474 0.1706107373853764 0  0.2154508497187474 0.1524471741852423 0  0.1845491502812526 0.1524471741852423 0  0.1595491502812526 0.1706107373853764 0  0.15 0.2 0  0.1595491502812526 0.2293892626146237 0  0.1845491502812527 0.2475528258147577 0  0.2154508497187474 0.2475528258147577 0  1.1 0 0  1.1 0.41 0  0 0.205 0  0.55 0 0  0.55 0.41 0  0.275 0 0  0.275 0.41 0  1.65 0.41 0  1.65 0 0  0.8250000000000001 0.41 0  0.8250000000000001 0 0  1.375 0 0  1.375 0.41 0  1.925 0 0  1.925 0.41 0  1.5125 0.205 0  1.7875 0.205 0  0.6875 0.205 0  0.9625000000000001 0.205 0  1.2375 0.205 0  2.2 0.205 0  0.4687002074688797 0.2068568464730291 0  1.99375 0.2152743902439024 0  2.0625 0 0  2.0625 0.41 0  2.2 0.3075 0  0.4125 0 0  0.4125 0.41 0  1.7875 0.41 0  1.375 0.1486128048780488 0  1.5125 0 0  1.7875 0 0  1.5125 0.41 0  0.8250000000000001 0.2613871951219511 0  0.9625000000000001 0.41 0  0.9625000000000001 0 0  0.6875 0.41 0  0.6875 0 0  0.1375 0 0  0.1375 0.41 0  1.2375 0 0  1.1 0.1486128048780487 0  1.2375 0.41 0  1.65 0.1486128048780487 0  1.126715909090909 0.2793064024390244 0  1.676715909090909 0.2793064024390244 0  0.8517159090909092 0.1306935975609756 0  1.348284090909091 0.2793064024390244 0  0.34375 0.3032389320646208 0  1.894702181800738 0.1282910975492754 0  2.092797818199262 0.1282910975492754 0  1.85625 0.3075 0  0.61875 0.3075 0  0.61875 0.1025 0  0.3648540804333487 0.1240075933101478 0  0 0.3075 0  0 0.1025 0  2.099172119769978 0.25625 0  0.48125 0.09238439620688085 0  0.5781001037344399 0.2059284232365146 0  0.48125 0.3196743479159776 0  0.7265881057911006 0.3055240343720796 0  1.99375 0.08395950269330846 0  1.459960956013612 0.3075 0  1.569025960719943 0.2986889805672169 0  0.75625 0.08213100772579164 0  1.03125 0.3278689922742084 0  0.923871252904788 0.3078247185783941 0  1.959375 0.3126371951219512 0  1.749222215368287 0.1025 0  1.275777784631713 0.1025 0  2.2 0.1025 0  1.225938124459196 0.3075 0  1.550777784631713 0.1025 0  1.000777784631713 0.1025 0  1.44375 0.07430640243902442 0  1.16875 0.07430640243902437 0  1.899250267340833 0.2229966846119207 0  0.1020898364287272 0.3140258291809757 0  1.766482954545455 0.2934032012195123 0  0.3405058858996321 0.2119987970531874 0  0.7710785630958338 0.1710968191298857 0  1.046078563095834 0.2389031808701144 0  0.2 0.3400647632937836 0  1.421109702350723 0.2261157654379721 0  0.2800464974185557 0.08982544815605742 0  0.098916018031319 0.09171660955420841 0  2.13125 0 0  2.118919042110979 0.3422084711244843 0  1.30625 0.41 0  0.89375 0 0  1.597888256393107 0.2173787389261347 0  0.20625 0 0  1.829299675393195 0.07400700849299596 0  1.71875 0.41 0  1.16875 0.41 0  2.038220665644273 0.332420740103091 0  0.34375 0 0  0.417496017710808 0.2696595573092803 0  0.2 0.07687845740457822 0  0.9295982307099278 0.1343158415898188 0  0.07390688010811153 0.1697064032433452 0  0.5238366813727013 0.2578302467013575 0  0.05452951551825875 0.25625 0  0.5229630068078351 0.1548816096928243 0  1.452769549894695 0.1548122580621249 0  1.369219062229598 0.07430640243902442 0  1.30625 0 0  0.8504409521244898 0.3356935975609756 0  0.8821881244591965 0.205 0  1.720943423819132 0.1714577452753128 0  1.157188124459196 0.205 0  1.094219062229598 0.07430640243902437 0  1.03125 0 0  1.304056576180868 0.1714577452753128 0  1.67579304192913 0.07430640243902437 0  0.2751941921308361 0.3346083473122598 0  1.209670467133757 0.1362100266964769 0  1.025335513626278 0.1700681449722324 0  0.7562500000000001 0.41 0  1.58125 0 0  0.7567170593862014 0.2409196493502535 0  0.6926714215682891 0.1272249611432207 0  0.4139715849905988 0.3397932387114203 0  0.9840787304190477 0.2717749043358119 0  0.06875000000000001 0.41 0  0 0.35875 0  0.9281250000000001 0.06276726142697993 0  0.5507396469029935 0.3219409231578227 0  0.5504468037989405 0.09136885600634273 0  1.58125 0.41 0  1.631724228912893 0.3381867502687533 0  1.825608881788174 0.14499488549201 0  1.85625 0 0  1.44375 0 0  1.44375 0.41 0  1.85625 0.41 0  2.13125 0.41 0  0.7562500000000001 0 0  0.89375 0.41 0  0.4812500000000001 0 0  0.34375 0.41 0  0.4812500000000001 0.41 0  0.20625 0.41 0  0.06875000000000001 0 0  1.16875 0 0  0.61875 0 0  0.61875 0.41 0  1.03125 0.41 0  1.71875 0 0  1.99375 0 0  1.99375 0.41 0  1.340625 0.3489494290853124 0  1.134375 0.3489494290853123 0  1.700180620188976 0.3438659752031281 0  2.135782184673599 0.07126652247502523 0  1.668441847249787 0.2129203728327609 0  1.295782514339747 0.2378437748815763 0  0.8233075729931248 0.06842334294821524 0  1.409375 0.3520314716057996 0  0.403505597322782 0.182067236678212 0  0.378125 0.05794951541303489 0  0.3043468223249023 0.1518321115979534 0  2.129248544730567 0.1906135162504124 0  2.060771381434487 0.1989445750470348 0  2.013252586573865 0.1496169464686054 0  1.942766402200229 0.1734448904596831 0  1.895522487186454 0.06076163953489683 0  2.069553871656643 0.06605731020975725 0  1.274680914880868 0.3520219391081363 0  1.614713220494657 0.09473434380863296 0  0.7899021319497519 0.3149123934144827 0  0.69518737419149 0.0634051089053758 0  0.2971740475496061 0.2592172353407536 0  1.72990325744076 0.2380068107952482 0  1.356580098625191 0.2120393231351682 0  2.034370752044885 0.2668681600792073 0  1.51768709249349 0.3426260931494756 0  1.561883724969884 0.1650446847858835 0  1.197344062229598 0.2523725417393646 0  1.804085235518364 0.3468178408964637 0  1.817887819205233 0.2589243285818559 0  1.905897727272727 0.3485060975609756 0  0.6719798073392919 0.2688965171178177 0  0 0.05125 0  0.653125 0.35875 0  0.6396896119294488 0.1627615407790282 0  0.4274150154087412 0.1242548552168279 0  1.192836486056382 0.3562350748565544 0  0.8279124365364005 0.183856489168822 0  1.097485222388854 0.2083571153401724 0  1.28257088594801 0.2944411014911587 0  1.474860187679412 0.2504218616229368 0  1.406767003493824 0.2829282258560709 0  0.446875 0.04619219810344041 0  0.515625 0.04585361801037557 0  0.592043440706648 0.05125 0  1.845656689180403 0.1998310418452388 0  2.144958525570388 0.2909790873294231 0  0.6171090763650112 0.2492366900333857 0  2.2 0.15375 0  0.5145586920831158 0.3648371739579888 0  1.57794966442982 0.3540357145964566 0  0.721875 0.3633107922168974 0  0.0496154796471391 0.333125 0  0.5843750000000001 0.3662560860076676 0  0.5810878747760798 0.1474002776121195 0  1.508991196088596 0.1421783375065625 0  0.8840670607017558 0.2640994375393898 0  0.09776612425612034 0.2204896805326566 0  1.50436820029908 0.06143401634903343 0  1.223857000523521 0.0823554862453532 0  1.153316824384777 0.1289850171317837 0  2.148922302309752 0.1258841779285271 0  0.309375 0.04312325590431198 0  1.621993280276081 0.2841214267927899 0  1.550118654119087 0.2461998729100966 0  1.327182649291491 0.1216967252533594 0  1.051977450479407 0.1221382572915816 0  1.753125 0.04556020050186112 0  1.271875 0.04556020050186116 0  0.9816084133102366 0.05126138213476004 0  1.039051841454368 0.0572224914831029 0  0.9719230514536006 0.3480477870845102 0  1.94956388244759 0.1180512551534177 0  1.949997712993411 0.04965831614304109 0  1.771961817615021 0.1530278789497521 0  1.909246823951428 0.2812757146784527 0  0.2459536687882397 0.04668633953831142 0  1.948575539857022 0.2445328248721197 0  1.697271520964565 0.1233917627620729 0  0.7964897648514618 0.1211426571931604 0  1.065625 0.3689344961371042 0  1.085849084308977 0.3170853572226867 0  0.4702981435440001 0.260434880697798 0  1.577403511714593 0.05463601888079143 0  0.05622663515370135 0.05493816910862376 0  0.3267207591099919 0.3566194660323104 0  0.9003051618565143 0.3564049499960621 0  1.751571320346033 0.3651102912045228 0  0.1583785085108421 0.2994699345738728 0  0.1455283439499995 0.3542795598723423 0  2.2 0.35875 0  0.2347662494194072 0.298325008655211 0  0.1527284455616188 0.1065771775690181 0  0.1382139529076665 0.05427454456341477 0  0.8749341636311069 0.05110114999892954 0  0.643661668713109 0.05693499781019222 0  1.466879772203159 0.3611261772912453 0  1.990280163552011 0.3564754268533217 0  1.17471064520912 0.2990917256188288 0  0.5202693090594349 0.206382495511728 0  0 0.25625 0  2.2 0.25625 0  2.2 0.05125 0  0 0.15375 0  1.853978576207987 0.35875 0  0.9787513713939683 0.1487523696999336 0  0.240625 0.3722153812029779 0  1.515638456102889 0.2882700110184686 0  0.09048297387599738 0.3637717362208066 0  2.150453692751374 0.2387066338105111 0  1.323782677156475 0.04897634338873398 0  0.8074131292871642 0.3624701995505916 0  1.409375 0.03715320121951221 0  1.406484531114799 0.1087852750766809 0  1.134375 0.03715320121951218 0  1.627401732573545 0.04552157221025036 0  0.1170173172005315 0.1427610859166811 0  2.045405893604797 0.1105340662939892 0  1.255408269734577 0.1577307500159216 0  2.028125 0.03707597992059326 0  0.4743610090857199 0.1421513964721819 0  0.9354010469015898 0.250631300585664 0  0.04420832937638274 0.128125 0  0.8922386349349938 0.0992956419364831 0  0.1197849154434487 0.2663398672460083 0  1.248258025468107 0.2565907092181813 0  0.3746885856929528 0.370723531618974 0  1.203125 0.0366132337404304 0  0.5724622277005015 0.2751253816079333 0  0.3365425205162783 0.08395777655057959 0  2.072662025974815 0.2975086504196739 0  0.4581080832182547 0.3648371739579888 0  0.3874522734668214 0.2295447548840689 0  0.7827853612484443 0.04106550386289586 0  1.887722846421017 0.1760882698830035 0  1.472640588990488 0.1118278026240017 0  1.865937103925594 0.2604137786483804 0  1.463913572748262 0.2030442564990043 0  1.376426316059077 0.3186741374914345 0  0.6641993820150034 0.3141688596240831 0  0.2943117490824315 0.2130987422685822 0  0.3478153998082709 0.1666571081082676 0  0.3427990510599805 0.2575950027870776 0  0.7997118993855807 0.2216171933356366 0  
[...]
<PointData  Scalars="f_10-2"> 
<DataArray  type="Float64"  Name="f_10-2"  format="ascii">3.5141808172619852e-08  6.5171901160902228e-08  4.6384776554990338e-07  4.3739256481621790e-07  1.1041160236635780e-06  1.5390769143793229e-06  1.0781375693501148e-06  4.0629045910898179e-07  1.7783092134361303e-07  1.1345354256036749e-07  9.3176329903957547e-08  1.1488723107593008e-07  1.8090341788082524e-07  4.0221836564491607e-07  1.6552002575616667e-06  1.3276207106296510e-06  5.6815902047616572e-08  5.1698031367974768e-07  3.9899003844986601e-07  4.1800356951903652e-07  3.0694866224875880e-07  1.9598043020710500e-06  2.2037985242562335e-06  7.7061447980894758e-07  1.0263793344564792e-06  2.1122135478739275e-06  1.7940912264255621e-06  1.4941739216226825e-06  1.3667018902340340e-06  3.3180974407618668e-06  2.9541389700265434e-06  2.8466092608601439e-06  3.2342179475579544e-06  3.3538961489578780e-06  9.8931758209923418e-07  2.0900656518743130e-06  2.0935682041391764e-06  9.1066593891520801e-07  8.4122139425617875e-07  7.6159315930571505e-07  4.5977691264716194e-07  3.6056832073265856e-07  1.7754874125351083e-06  3.1748345942095996e-06  2.2302758885212194e-06  1.9628023195829074e-06  1.9387139222583697e-06  2.4704937702881114e-06  1.0489249495515546e-06  1.3513604818759324e-06  5.3418023052604015e-07  7.1833558479463600e-07  2.3801654825941076e-07  1.3900053922839035e-07  1.9167866497168471e-06  3.0684264507378561e-06  1.5838662156233122e-06  3.0788943240419904e-06  2.6123574517486569e-06  2.7733694035632499e-06  2.5166152521908437e-06  2.7861944300263461e-06  5.2514129747450378e-07  2.3710957471569069e-06  1.3840473953343750e-06  2.2052282796656000e-06  1.0982244218007658e-06  1.3658792624740745e-06  6.9462057420615593e-07  4.1190594031017630e-08  5.7566878452035162e-08  1.4009769436012701e-06  7.6975099070313890e-07  2.5248729940788594e-06  6.1290825476338883e-07  1.4347400803886716e-06  1.6583444940752217e-06  2.5241843227302682e-06  2.6461921910860072e-06  1.4504772256376506e-06  1.7380817289610037e-06  1.8471873467700026e-06  1.7971295255702596e-06  2.6223429530703869e-06  2.6642954386760854e-06  7.9985191969554145e-07  2.3171906728940412e-06  2.7914738570190784e-06  2.3218090101882893e-06  2.5089126191933416e-06  2.2027340180929797e-06  2.5360965849000479e-06  1.5231494020753169e-07  2.5329527838052197e-06  1.4876916063717979e-06  2.9028065486682035e-06  3.0710321600209908e-06  3.7198894135757608e-07  3.2779241499257132e-06  4.6496478022687781e-07  1.8006680049123105e-07  6.3519075178932913e-07  9.1727031967946961e-07  1.6969732533343854e-06  1.1889592319552600e-06  3.2369950343182329e-06  3.5430359625631716e-07  2.2286433394402427e-06  1.9000560959732537e-06  1.4596968417040841e-06  1.3247138464353936e-06  4.4784980186400251e-07  9.3074592694391571e-07  4.1046406913555579e-07  2.7052076714757504e-06  6.0727139656021975e-08  1.6182178119531477e-06  5.2494998168113965e-08  1.9067450348270084e-06  3.2172940949441767e-06  2.4489452316313113e-06  2.0171472886789195e-06  1.2650491210733090e-06  3.1695419529078787e-06  3.0718267365116621e-06  3.3383247478549607e-06  2.0849071797888850e-06  1.5128552736089602e-06  3.3101084959327784e-06  2.5117616559336134e-06  4.2694601704660698e-07  3.0048066545412433e-06  3.2044068791793938e-06  6.3955320054522065e-07  2.2419065769571093e-06  2.6627033840811177e-06  2.0631189644668866e-06  4.5264708586833136e-07  2.5600384367377438e-06  5.6008945383170158e-08  3.5156353562352146e-08  1.6115628512736441e-06  7.3710568526783148e-07  9.6693950724166513e-07  1.9687776989018930e-06  2.2831813610970429e-06  2.7080983395657841e-06  1.7515643063396304e-06  2.1799405044713248e-06  1.8795256592347937e-06  1.6041412599044828e-06  5.9501214524227221e-07  8.6312814294715400e-07  9.0199825944060000e-07  4.7404742045639893e-07  3.4359391271904423e-07  3.7209641437618117e-07  2.3629783730689148e-07  1.0778655312123808e-07  1.7961671193622386e-06  6.0012417396856195e-07  4.5343658098967181e-07  1.1852571077192240e-06  2.1111680621076145e-06  1.1927261406532602e-06  1.1137001542011235e-06  1.9843487464878899e-06  1.6712437928552043e-06  2.2056586651714011e-06  9.1171918857114408e-07  3.1727077058026120e-06  3.1942337371259806e-06  1.4278823025849185e-06  2.0479564482993191e-06  1.6922001654034477e-06  4.9207082820428293e-07  8.2250847409478764e-07  1.3230829266209461e-06  1.7255381483854880e-06  1.9041621274764650e-06  2.3409684634080549e-06  1.9199398939000583e-06  1.1897617768092094e-06  1.8705606502827162e-06  2.7104846860383141e-06  1.4346244397746737e-06  1.0380341441633425e-06  7.0625204984034788e-07  2.9840313474101236e-06  3.3412965082956871e-06  1.7107050423172228e-06  2.2165372522569109e-06  3.2315053377889181e-06  3.0197913080578012e-06  2.0364993383081661e-06  2.6665231049367335e-06  1.7469241483471434e-06  1.9531398376581120e-06  5.9829422224053682e-08  6.2220343500320720e-07  2.4851729194134928e-06  9.1980458606742931e-07  1.7028502664658267e-06  3.0875427720502839e-06  3.3188335795594414e-06  2.5504954494669713e-06  3.1069121009383856e-06  2.7732259453962017e-06  4.9961459584021884e-07  5.5802383431573762e-07  6.9390757295667160e-07  2.7779074758777453e-06  1.0337920087583774e-06  2.1398999555905361e-06  9.4141076376405365e-07  4.3461475409873803e-07  2.1599893022894269e-06  7.1219175402467024e-07  4.4265727692076121e-08  4.9159360576507083e-07  2.0300641573436457e-06  3.1232732391529748e-06  2.5297481486715432e-06  6.4423025668747605e-08  2.4450338085328902e-06  2.3722025133950219e-06  2.8820334596512714e-06  1.0781298982412796e-06  4.5346671775990179e-07  2.7726874039272816e-06  3.1213856524236371e-06  2.9136154370149979e-06  2.6915612922763584e-06  2.2173997169392456e-06  2.0966916446964042e-06  1.6035827834421790e-06  1.7875233435483650e-06  1.3708996066002913e-06  2.0749066268465433e-06  1.6296648819772077e-06  2.8951995782912449e-06  2.2147025577048381e-06  4.2668489726856697e-07  2.2435806900292553e-06  2.8577282359494763e-06  2.2325179780421763e-06  1.3721208225066408e-06  1.9894938703495287e-06  1.3197621621027049e-06  2.4202546213571946e-06  8.0121541770567548e-08  3.9237508671028444e-07  1.1307921592169724e-06  2.0076266383040280e-06  3.1194613986594921e-07  2.3026088456661584e-07  5.7016519221401982e-07  3.9446660212210617e-07  2.9941565534233994e-07  2.9312704804669207e-07  1.3517295112716000e-06  8.4214617205116602e-07  2.0416178009175623e-06  1.3770633993015094e-06  2.3753798248590204e-06  2.3167805426497564e-06  5.0664526753012931e-08  9.1936387548904365e-07  6.0619122466170399e-07  5.8917530873696480e-08  1.8358577632084278e-06  2.9612474831286424e-06  3.1690930515616695e-07  2.7475352947243100e-06  8.1501071188209784e-08  1.1655501167779043e-06  2.1904321746244363e-06  8.8563469421600018e-07  2.2286536225938235e-06  2.8188683371970593e-06  1.8117411169001853e-06  2.3571225871056442e-06  1.4045005156398258e-07  1.5562407244452182e-06  3.2210522812594445e-06  1.2092076664342736e-06  1.4350401521851978e-06  2.8139239099424826e-06  6.2571679038163916e-08  2.0659161635492643e-06  1.6444797671435909e-07  2.9968054906473708e-06  3.7899232149855278e-07  1.9379548921550428e-06  1.4898717390674732e-06  5.0936280009758539e-07  1.3621471731202562e-06  4.0865727418066251e-07  1.4441428198085057e-06  1.0443805221882213e-06  2.5960520321643164e-06  2.8684969183261307e-06  2.5053343083700068e-06  3.3423926836405481e-06  2.3350426877144660e-06  1.1223761922366285e-06  1.4419749992717694e-06  1.1614176964994280e-06  7.9066170471001637e-07  2.9650980030634943e-06  2.6920822038216765e-06  2.8431532688981794e-06  8.7528722806454566e-07  2.7749305320274152e-06  2.1604450095723853e-06  3.1316932229145222e-06  2.4596692177592121e-06  2.9432013884929986e-06  3.3613609331297860e-06  5.3011607408496522e-07  9.7658118475071750e-07  3.0720687106465076e-06  2.7108002701423658e-06  2.5015445835775851e-06  2.3592871606973394e-06  5.6466353483644121e-08  1.9713264279577600e-06  7.8288093086570104e-07  7.1414107666037950e-07  9.8577265412917153e-07  1.5743581440336235e-07  9.3144527762701605e-07  1.9697629657780641e-06  2.6020426952335052e-06  1.6630412061846000e-06  3.0287381695522360e-07  3.1342947586515556e-06  3.3367326448497079e-06  2.2082382735507549e-06  3.2371184258390960e-06  1.9598424871474307e-06  8.3316041148450569e-07  2.1636991399793968e-06  2.2776373601586603e-06  1.1198676681762524e-06  1.2676806136341833e-06  6.4667453571030758e-07  6.0694131454298932e-07  3.9176727938923042e-08  1.3822158397872704e-06  7.6613214968894145e-07  3.1790958672249517e-06  2.9863181713526804e-06  3.0951857822421459e-06  2.1090511030231914e-06  2.2504814376162188e-06  2.2395520087839930e-06  1.4662155370355224e-06  1.8180627440686342e-06  3.4705357422830669e-07  1.6902493756488497e-06  1.6893786533051153e-06  2.3370954217464159e-06  2.0720596565176005e-06  2.0274215878072757e-06  5.7240390466076722e-07  1.9114321449587708e-07  1.6738301214993434e-06  9.7935676595103787e-07  3.2958828116936718e-06  1.6879819623342565e-06  1.5002299355379156e-06  2.2927450771860504e-06  3.5884752020494123e-07  3.2709716945525079e-06  1.7870016590594742e-06  3.0130175588697772e-06  2.1802995481367473e-06  5.6648630563992013e-07  6.2839442946761005e-07  2.9677617184569768e-06  2.3853053986630152e-06  2.9088530025510316e-06  3.1472721841814474e-06  3.2521156095032366e-06  7.0097905729653712e-08  1.1171269945182244e-06  2.3660125727941478e-06  1.4282848257720880e-06  1.9554433570709763e-06  1.4904282507033130e-06  1.9315890168685034e-06  1.6312468509185118e-06  1.9469642705199647e-06  2.7739520770471757e-06  2.5659331189318124e-06  2.2878923754204423e-06  2.7916700217318351e-06  7.3919494027238231e-08  1.5753069013192284e-06  4.9118710961326296e-07  3.7176820239670942e-08  1.0959904895480080e-06  3.1671184159678026e-06  2.6451047896876093e-06  1.9024260827652076e-06  6.8814074754306385e-08  5.7659856742098269e-07  3.6336957103199215e-07  2.3772691571096318e-06  1.5622434209141497e-06  1.1006540671148890e-06  8.1168920146602980e-07  3.3036942057198271e-06  5.8569693464389842e-08  2.8605786783104763e-06  1.8593574593232380e-06  1.4165729776581720e-06  2.8946753762177231e-06  3.4207379881600550e-07  2.4730025183866798e-07  3.1008695934174936e-06  3.2823381029922013e-07  2.5442059800865111e-06  2.1184865943972347e-06  1.2285543193202602e-06  2.3340314990096067e-06  5.9162080950139911e-07  1.0209871531506644e-06  2.1954435773217397e-06  9.4035959133838689e-07  4.5696458947839676e-08  2.3007276243827895e-06  3.0542414435172212e-06  3.3627767049542377e-06  2.8851519445254731e-06  3.0430198525425601e-06  2.8298725062902242e-06  2.1685406964520762e-06  2.5917486103088511e-06  3.0844728693229288e-06  3.2316405534167670e-06  2.1121665805726224e-06  9.9882814231790495e-08  4.4106360645122092e-07  2.5875236602511148e-06  2.8693045423887550e-06  8.7316057702129189e-08  4.1214690959300703e-07  2.4812277752465320e-06  2.4280083065216780e-06  8.2252268944868965e-07  2.8359510591449595e-07  5.5551558101317708e-07  5.9475109473247829e-08  1.9240841514809446e-06  2.0510144533274627e-06  3.2562319558068902e-06  2.0117873081388614e-06  1.9897066757638314e-06  1.8628892384458202e-06  1.0242726059501687e-06  1.6576013866698357e-06  1.8789965624545356e-06  2.5102600269701877e-06  1.2926893194598525e-06  1.2115523192223215e-06  1.3755555231695160e-06  1.1330100216742260e-06  2.2270728576132984e-06  2.4988997030601069e-06  3.2855358293965164e-06  2.8432692445632873e-06  3.2505323417584040e-06  7.5322579849949441e-07  2.4723563621207769e-06  1.5757221815448879e-06  1.3992759379258919e-06  1.3000040218842966e-06  1.1062828790188972e-06  1.1465225899397632e-06  8.7814687974810682e-07  1.1389114107660864e-06  1.5310387472821324e-06  2.2928383886520403e-06  7.8907687679157131e-07  2.0283081587937608e-06  3.3099814139462852e-06  3.1657895506980363e-06  2.5136652405733277e-06  2.8853169522665869e-06  2.1630247031351270e-06  4.7079025493857372e-07  3.8278203470419139e-07  2.1303757391041204e-06  1.3900313835665029e-06  2.0704425474514918e-06  2.8081566270811707e-06  1.5205871022582846e-06  1.3953024784392428e-06  1.7833406885359204e-06  1.7417410938081059e-06  1.8860282875671595e-06  2.1319239963505574e-06  3.3468325704945691e-06  1.2916751031599034e-06  1.5196931747325122e-06  7.0467078764589800e-07  4.8992070824789691e-07  1.6780597769191795e-06  1.0681685993366896e-06  4.7711596645852790e-07  4.5431862294460779e-07  6.0393517613670992e-07  1.0596069574214666e-06  7.4807806504592203e-07  6.8278529168725379e-07  2.6965249669459804e-06  1.9865202306734351e-06  3.0002018184721795e-06  7.7189164497463925e-07  1.5479804479174395e-06  1.3591118553667038e-06  2.3804931645798039e-06  1.9319998927124694e-06  2.0921930974209431e-06  1.8971029370205772e-06  2.0208094996787911e-06  1.6377148090555032e-06  1.4138108633702184e-06  1.8627385611367391e-06  4.9925510848492935e-07  2.0687175610491214e-06  1.5885208305746152e-06  5.2148595640200754e-07  7.6113452962173203e-07  1.7285834264583377e-06  2.1524064052823438e-06  1.9126771677882021e-06  1.8476720307823398e-06  1.2579458029547929e-06  2.0521956479281393e-06  5.8574035529895617e-07  1.8371370690389233e-06  7.8967002986508190e-07  4.9371432218746936e-07  1.2757855284580146e-06  3.5362554151114081e-07  4.6416721070456714e-07  3.6525467410772515e-07  1.6754939278325095e-07  2.7640077966983316e-07  3.9061226050769929e-07  8.9928702124073613e-08  6.5316438260191000e-07  9.4273071326537777e-07  4.3628311894188404e-07  4.2039673531090227e-07  3.8181843478981163e-07  5.5182818930608915e-07  4.8889466013946799e-07  4.8551383253616724e-07  1.4391212746706709e-06  1.8545802225007358e-06  2.2270456847396971e-06  1.3433302837402598e-06  1.9687248155645197e-06  1.0476499083259598e-06  1.2358239462802086e-06  1.9994533152706671e-06  1.7577397128165399e-06  1.4303603123428187e-06  2.9586652818498293e-06  3.2019131900322338e-06  5.7399655285154342e-07  3.1557838428079457e-06  2.8423517407753468e-06  1.9133198963081452e-06  2.4817875887160715e-06  2.4484441019598848e-06  1.6737060495983292e-06  1.9617266973764109e-07  2.2045060286034081e-06  1.9021804239064546e-06  2.9232389943654774e-06  2.0403902993213495e-06  3.1278515981084110e-06  4.3843443238087374e-07  2.5343108593384029e-06  2.4814394857868496e-06  3.0285992147230985e-06  3.3546741336320716e-06  1.9476694554865512e-06  1.9721481444982861e-06  1.5490855119964432e-06  2.4718306910055831e-06  1.1359000586352643e-06  5.4271416836677920e-08  4.4938439561905421e-07  2.2907159976122408e-06  5.0165000519324793e-07  1.0415055494301801e-06  1.2597987578986711e-06  2.2199270224374088e-06  5.7848258357675636e-07  3.3384009391919891e-06  8.2872461872834438e-08  1.9936861996342609e-06  2.4553808351487562e-06  2.4209732422198448e-06  1.2687251757093197e-07  1.1247584802171379e-06  3.7630172943793533e-07  1.5140553573536284e-06  1.8673638025089077e-06  2.9363208283777914e-06  1.5136729464939141e-06  1.8295633786062288e-06  3.2903060736982842e-06  2.0761997958618094e-06  2.5304653784799519e-06  2.7128218796011625e-06  1.7849256910342690e-06  1.0033315500629700e-06  7.1237103888645558e-07  3.1667429271413627e-06  3.0246137595948605e-06  2.1004940837012504e-06  1.4376517889371298e-06  2.6673358240317301e-06  2.5525873521355390e-06  1.7803105584336318e-07  1.5323864189437861e-06  1.0449198533922062e-06  2.0100862748025925e-06  1.1274048564866783e-06  5.3805309233232901e-07  2.9272907465140108e-07  1.9853459259239379e-06  2.0278769267875221e-06  2.7918769419674548e-06  3.2981320263308576e-06  4.5355164647316147e-07  2.6123993402957309e-06  2.5486330755841023e-06  7.9580499990410560e-07  2.5558235890684552e-06  1.6326388587945931e-06  1.2982033141151091e-06  1.6918467613548096e-06  3.3123592423169496e-06  2.6131130864905115e-06  2.2827697451110835e-06  2.8389505605544052e-06  2.0789421357653144e-06  2.1064356664031393e-06  9.9094865319599720e-08  2.7955091634913846e-06  6.5508563271096394e-07  3.2627859868505682e-06  2.7571563608287609e-06  3.1934328134318256e-06  3.1827087832913050e-06  2.5012734487817885e-06  2.5980050394769119e-06  2.4439764061539762e-06  1.5326501594399353e-06  2.2663502631911636e-06  1.2778494701917955e-06  6.3250570777978113e-08  6.7323517035647537e-08  3.1128745877527943e-06  2.1204791218606603e-06  2.1701858536914370e-06  1.2599181495479046e-07  4.9546633315860937e-07  2.2251710424730006e-06  3.8115113226603836e-07  2.9725576468084311e-07  8.3988225792532834e-07  1.9355612684591290e-06  1.4173091516470004e-06  1.7967201700486997e-06  4.3934861956864577e-07  2.3358044051994228e-06  1.7200645502417271e-06  9.7093949834705440e-07  5.3306039646409849e-08  5.8318988860206629e-07  4.6018517401368642e-07  1.0558405391558351e-06  1.4984245680246047e-06  2.0344356056417670e-06  3.1683873053786191e-06  2.9541763295927880e-06  2.2828144515452067e-06  9.6692366782947818e-07  2.5390327541454040e-06  9.0521984029572949e-07  3.2993172287516254e-06  3.3365127433183860e-06  2.9539588078120591e-06  2.8835220622462382e-06  2.7785094208502775e-06  7.5450794979586292e-07  2.8802099191905935e-06  1.5438622174128475e-06  1.8766448465777605e-06  1.6124405568377330e-07  2.5402409279143351e-07  2.4317505434514969e-06  2.0817515340229629e-06  3.3145423367754049e-06  3.2460215751816517e-06  2.8233560699052768e-06  3.2502091556041764e-06  2.2265543179900136e-06  1.9642085280823767e-06  1.0313476034526163e-06  1.1667068197885293e-06  1.5075074778726933e-06  3.0239535931492543e-06  3.1287784375440264e-06  2.8372888629801598e-06  3.0614543390071366e-06  1.0391783637366230e-06  1.8125364407501252e-06  2.6641711192889553e-06  2.3408311062842948e-06  2.1428787358764998e-06  1.5396862947112535e-06  9.8365124641261025e-07  8.7728777465518217e-07  3.6736469260862192e-07  2.6027495220138129e-06  2.9334523525839427e-06  9.4931058716153366e-07  1.6946156562240079e-06  6.3635801409334357e-07  2.3703190739233066e-06  2.4794712426863459e-06  1.9000340079050986e-06  9.1831881571135661e-07  1.3697146931265078e-06  1.1523391132454922e-06  1.5792936651536878e-06  2.8948779792039379e-06  6.7244596310552769e-07  3.1631036371178022e-06  2.5349476709360866e-06  5.8991183158364963e-07  2.4679372329822284e-06  1.9502884388711225e-06  5.9969898180857009e-07  2.9830365125733298e-07  1.8662446502507268e-06  9.5256201517488060e-07  1.2113960636093311e-06  8.5705374058354453e-07  4.0096091786105309e-07  2.6157253380807091e-06  1.5903224357406410e-06  3.0695694429758693e-06  2.0583334218380115e-06  2.1358722159348849e-06  2.0683586089445334e-06  2.8810971000920169e-06  2.9245765228108978e-06  2.9462097330250335e-06  2.5494123791144966e-06  4.7853097926190999e-07  3.3672596925237237e-06  1.8831987956915577e-06  2.0166419211721957e-06  1.6525733833890251e-06  1.9779002686577163e-06  3.9545047194382570e-07  4.6346460180684341e-07  2.3317606351034404e-06  1.3806067679166298e-07  4.1647465344169906e-07  1.0080688763129290e-07  1.7409082368105336e-07  4.2081538462393613e-07  2.0256845679130867e-06  3.4620198034674469e-07  2.6896185646843510e-06  9.7560704670949212e-07  5.7671458271007154e-08  5.5777012774742915e-08  2.3835531504022293e-06  2.1691622256353001e-06  2.5282279242347907e-07  2.1721604813357040e-06  4.4166859535292046e-08  1.3567521617310607e-06  3.7317588982155221e-08  8.1292819890317923e-08  2.2932962597578147e-07  2.7675625659397187e-07  2.2558731615288076e-06  1.5271277048348927e-06  1.0134514458139369e-06  3.2399765009077358e-06  2.9157453859362438e-06  3.1840190512826838e-06  2.2752739362051022e-06  2.2538925471468411e-06  3.1853558175286368e-06  2.8770109717344185e-06  4.2181383976746473e-07  1.9933063873406610e-06  1.7861886836941800e-06  1.5418154588331598e-06  4.6275989352970733e-07  1.3404601154301608e-06  2.1435866903066639e-06  3.0387190113902038e-06  2.7857086320371189e-06  1.5294190671306207e-06  2.6177077406326994e-06  2.9601000042112359e-06  5.1475396883530400e-07  2.5514655387362052e-06  4.4571547504213485e-07  2.2794740823414167e-06  2.4238594975016363e-06  9.2489305299282322e-07  3.0866582798438527e-06  2.6996010081531