<?xml version="1.0"?>
<VTKFile type="UnstructuredGrid"  version="0.1"  >
<UnstructuredGrid>
<Piece  NumberOfPoints="2446" NumberOfCells="4585">
<Points>
<DataArray  type="Float64"  NumberOfComponents="3"  format="ascii">0 0.41 0  0 0 0  2.2 0 0  2.2 0.41 0  0.2404508497187474 0.2293892626146237 0  0.25 0.2 0  0.2404508497187474 0.1706107373853764 0  0.2154508497187474 0.1524471741852423 0  0.1845491502812526 0.1524471741852423 0  0.1595491502812526 0.1706107373853764 0  0.15 0.2 0  0.1595491502812526 0.2293892626146237 0  0.1845491502812527 0.2475528258147577 0  0.2154508497187474 0.2475528258147577 0  1.1 0 0  1.1 0.41 0  0 0.205 0  0.55 0 0  0.55 0.41 0  0.275 0 0  0.275 0.41 0  1.65 0.41 0  1.65 0 0  0.8250000000000001 0.41 0  0.8250000000000001 0 0  1.375 0 0  1.375 0.41 0  1.925 0 0  1.925 0.41 0  1.5125 0.205 0  1.7875 0.205 0  0.6875 0.205 0  0.9625000000000001 0.205 0  1.2375 0.205 0  2.2 0.205 0  0.4687002074688797 0.2068568464730291 0  1.99375 0.2152743902439024 0  2.0625 0 0  2.0625 0.41 0  2.2 0.3075 0  0.4125 0 0  0.4125 0.41 0  1.7875 0.41 0  1.375 0.1486128048780488 0  1.5125 0 0  1.7875 0 0  1.5125 0.41 0  0.8250000000000001 0.2613871951219511 0  0.9625000000000001 0.41 0  0.9625000000000001 0 0  0.6875 0.41 0  0.6875 0 0  0.1375 0 0  0.1375 0.41 0  1.2375 0 0  1.1 0.1486128048780487 0  1.2375 0.41 0  1.65 0.1486128048780487 0  1.126715909090909 0.2793064024390244 0  1.676715909090909 0.2793064024390244 0  0.8517159090909092 0.1306935975609756 0  1.348284090909091 0.2793064024390244 0  0.34375 0.3032389320646208 0  1.894702181800738 0.1282910975492754 0  2.092797818199262 0.1282910975492754 0  1.85625 0.3075 0  0.61875 0.3075 0  0.61875 0.1025 0  0.3648540804333487 0.1240075933101478 0  0 0.3075 0  0 0.1025 0  2.099172119769978 0.25625 0  0.48125 0.09238439620688085 0  0.5781001037344399 0.2059284232365146 0  0.48125 0.3196743479159776 0  0.7265881057911006 0.3055240343720796 0  1.99375 0.08395950269330846 0  1.459960956013612 0.3075 0  1.569025960719943 0.2986889805672169 0  0.75625 0.08213100772579164 0  1.03125 0.3278689922742084 0  0.923871252904788 0.3078247185783941 0  1.959375 0.3126371951219512 0  1.749222215368287 0.1025 0  1.275777784631713 0.1025 0  2.2 0.1025 0  1.225938124459196 0.3075 0  1.550777784631713 0.1025 0  1.000777784631713 0.1025 0  1.44375 0.07430640243902442 0  1.16875 0.07430640243902437 0  1.899250267340833 0.2229966846119207 0  0.1020898364287272 0.3140258291809757 0  1.766482954545455 0.2934032012195123 0  0.3405058858996321 0.2119987970531874 0  0.7710785630958338 0.1710968191298857 0  1.046078563095834 0.2389031808701144 0  0.2 0.3400647632937836 0  1.421109702350723 0.2261157654379721 0  0.2800464974185557 0.08982544815605742 0  0.098916018031319 0.09171660955420841 0  2.13125 0 0  2.118919042110979 0.3422084711244843 0  1.30625 0.41 0  0.89375 0 0  1.597888256393107 0.2173787389261347 0  0.20625 0 0  1.829299675393195 0.07400700849299596 0  1.71875 0.41 0  1.16875 0.41 0  2.038220665644273 0.332420740103091 0  0.34375 0 0  0.417496017710808 0.2696595573092803 0  0.2 0.07687845740457822 0  0.9295982307099278 0.1343158415898188 0  0.07390688010811153 0.1697064032433452 0  0.5238366813727013 0.2578302467013575 0  0.05452951551825875 0.25625 0  0.5229630068078351 0.1548816096928243 0  1.452769549894695 0.1548122580621249 0  1.369219062229598 0.07430640243902442 0  1.30625 0 0  0.8504409521244898 0.3356935975609756 0  0.8821881244591965 0.205 0  1.720943423819132 0.1714577452753128 0  1.157188124459196 0.205 0  1.094219062229598 0.07430640243902437 0  1.03125 0 0  1.304056576180868 0.1714577452753128 0  1.67579304192913 0.07430640243902437 0  0.2751941921308361 0.3346083473122598 0  1.209670467133757 0.1362100266964769 0  1.025335513626278 0.1700681449722324 0  0.7562500000000001 0.41 0  1.58125 0 0  0.7567170593862014 0.2409196493502535 0  0.6926714215682891 0.1272249611432207 0  0.4139715849905988 0.3397932387114203 0  0.9840787304190477 0.2717749043358119 0  0.06875000000000001 0.41 0  0 0.35875 0  0.9281250000000001 0.06276726142697993 0  0.5507396469029935 0.3219409231578227 0  0.5504468037989405 0.09136885600634273 0  1.58125 0.41 0  1.631724228912893 0.3381867502687533 0  1.825608881788174 0.14499488549201 0  1.85625 0 0  1.44375 0 0  1.44375 0.41 0  1.85625 0.41 0  2.13125 0.41 0  0.7562500000000001 0 0  0.89375 0.41 0  0.4812500000000001 0 0  0.34375 0.41 0  0.4812500000000001 0.41 0  0.20625 0.41 0  0.06875000000000001 0 0  1.16875 0 0  0.61875 0 0  0.61875 0.41 0  1.03125 0.41 0  1.71875 0 0  1.99375 0 0  1.99375 0.41 0  1.340625 0.3489494290853124 0  1.134375 0.3489494290853123 0  1.700180620188976 0.3438659752031281 0  2.135782184673599 0.07126652247502523 0  1.668441847249787 0.2129203728327609 0  1.295782514339747 0.2378437748815763 0  0.8233075729931248 0.06842334294821524 0  1.409375 0.3520314716057996 0  0.403505597322782 0.182067236678212 0  0.378125 0.05794951541303489 0  0.3043468223249023 0.1518321115979534 0  2.129248544730567 0.1906135162504124 0  2.060771381434487 0.1989445750470348 0  2.013252586573865 0.1496169464686054 0  1.942766402200229 0.1734448904596831 0  1.895522487186454 0.06076163953489683 0  2.069553871656643 0.06605731020975725 0  1.274680914880868 0.3520219391081363 0  1.614713220494657 0.09473434380863296 0  0.7899021319497519 0.3149123934144827 0  0.69518737419149 0.0634051089053758 0  0.2971740475496061 0.2592172353407536 0  1.72990325744076 0.2380068107952482 0  1.356580098625191 0.2120393231351682 0  2.034370752044885 0.2668681600792073 0  1.51768709249349 0.3426260931494756 0  1.561883724969884 0.1650446847858835 0  1.197344062229598 0.2523725417393646 0  1.804085235518364 0.3468178408964637 0  1.817887819205233 0.2589243285818559 0  1.905897727272727 0.3485060975609756 0  0.6719798073392919 0.2688965171178177 0  0 0.05125 0  0.653125 0.35875 0  0.6396896119294488 0.1627615407790282 0  0.4274150154087412 0.1242548552168279 0  1.192836486056382 0.3562350748565544 0  0.8279124365364005 0.183856489168822 0  1.097485222388854 0.2083571153401724 0  1.28257088594801 0.2944411014911587 0  1.474860187679412 0.2504218616229368 0  1.406767003493824 0.2829282258560709 0  0.446875 0.04619219810344041 0  0.515625 0.04585361801037557 0  0.592043440706648 0.05125 0  1.845656689180403 0.1998310418452388 0  2.144958525570388 0.2909790873294231 0  0.6171090763650112 0.2492366900333857 0  2.2 0.15375 0  0.5145586920831158 0.3648371739579888 0  1.57794966442982 0.3540357145964566 0  0.721875 0.3633107922168974 0  0.0496154796471391 0.333125 0  0.5843750000000001 0.3662560860076676 0  0.5810878747760798 0.1474002776121195 0  1.508991196088596 0.1421783375065625 0  0.8840670607017558 0.2640994375393898 0  0.09776612425612034 0.2204896805326566 0  1.50436820029908 0.06143401634903343 0  1.223857000523521 0.0823554862453532 0  1.153316824384777 0.1289850171317837 0  2.148922302309752 0.1258841779285271 0  0.309375 0.04312325590431198 0  1.621993280276081 0.2841214267927899 0  1.550118654119087 0.2461998729100966 0  1.327182649291491 0.1216967252533594 0  1.051977450479407 0.1221382572915816 0  1.753125 0.04556020050186112 0  1.271875 0.04556020050186116 0  0.9816084133102366 0.05126138213476004 0  1.039051841454368 0.0572224914831029 0  0.9719230514536006 0.3480477870845102 0  1.94956388244759 0.1180512551534177 0  1.949997712993411 0.04965831614304109 0  1.771961817615021 0.1530278789497521 0  1.909246823951428 0.2812757146784527 0  0.2459536687882397 0.04668633953831142 0  1.948575539857022 0.2445328248721197 0  1.697271520964565 0.1233917627620729 0  0.7964897648514618 0.1211426571931604 0  1.065625 0.3689344961371042 0  1.085849084308977 0.3170853572226867 0  0.4702981435440001 0.260434880697798 0  1.577403511714593 0.05463601888079143 0  0.05622663515370135 0.05493816910862376 0  0.3267207591099919 0.3566194660323104 0  0.9003051618565143 0.3564049499960621 0  1.751571320346033 0.3651102912045228 0  0.1583785085108421 0.2994699345738728 0  0.1455283439499995 0.3542795598723423 0  2.2 0.35875 0  0.2347662494194072 0.298325008655211 0  0.1527284455616188 0.1065771775690181 0  0.1382139529076665 0.05427454456341477 0  0.8749341636311069 0.05110114999892954 0  0.643661668713109 0.05693499781019222 0  1.466879772203159 0.3611261772912453 0  1.990280163552011 0.3564754268533217 0  1.17471064520912 0.2990917256188288 0  0.5202693090594349 0.206382495511728 0  0 0.25625 0  2.2 0.25625 0  2.2 0.05125 0  0 0.15375 0  1.853978576207987 0.35875 0  0.9787513713939683 0.1487523696999336 0  0.240625 0.3722153812029779 0  1.515638456102889 0.2882700110184686 0  0.09048297387599738 0.3637717362208066 0  2.150453692751374 0.2387066338105111 0  1.323782677156475 0.04897634338873398 0  0.8074131292871642 0.3624701995505916 0  1.409375 0.03715320121951221 0  1.406484531114799 0.1087852750766809 0  1.134375 0.03715320121951218 0  1.627401732573545 0.04552157221025036 0  0.1170173172005315 0.1427610859166811 0  2.045405893604797 0.1105340662939892 0  1.255408269734577 0.1577307500159216 0  2.028125 0.03707597992059326 0  0.4743610090857199 0.1421513964721819 0  0.9354010469015898 0.250631300585664 0  0.04420832937638274 0.128125 0  0.8922386349349938 0.0992956419364831 0  0.1197849154434487 0.2663398672460083 0  1.248258025468107 0.2565907092181813 0  0.3746885856929528 0.370723531618974 0  1.203125 0.0366132337404304 0  0.5724622277005015 0.2751253816079333 0  0.3365425205162783 0.08395777655057959 0  2.072662025974815 0.2975086504196739 0  0.4581080832182547 0.3648371739579888 0  0.3874522734668214 0.2295447548840689 0  0.7827853612484443 0.04106550386289586 0  1.887722846421017 0.1760882698830035 0  1.472640588990488 0.1118278026240017 0  1.865937103925594 0.2604137786483804 0  1.463913572748262 0.2030442564990043 0  1.376426316059077 0.3186741374914345 0  0.6641993820150034 0.3141688596240831 0  0.2943117490824315 0.2130987422685822 0  0.3478153998082709 0.1666571081082676 0  0.3427990510599805 0.2575950027870776 0  0.7997118993855807 0.2216171933356366 0  
[...]
<PointData  Scalars="f_10-2"> 
<DataArray  type="Float64"  Name="f_10-2"  format="ascii">1.9638072690080533e-07  2.7746602323044874e-07  3.3781574304116102e-06  3.1526845291701804e-06  1.7480537849251250e-06  2.2289576297311424e-06  1.6679952864306942e-06  8.2038434280449026e-07  4.6300512955881614e-07  3.3224250822621064e-07  2.9370948039569903e-07  3.4163197297144105e-07  4.9210304189015872e-07  8.6533589339116095e-07  2.4167235477740488e-06  2.1079069658235095e-06  2.2498506836697941e-07  1.3348529990833955e-06  1.2659718544205262e-06  1.2102028913536463e-06  1.0688905777341494e-06  2.8732088910637139e-06  3.1754255619455221e-06  1.5906845071864418e-06  1.8034710708965753e-06  2.8841880174315962e-06  2.5563278825388931e-06  3.3283283670860798e-06  3.0611577278863061e-06  4.2160419547628678e-06  4.1149518111718928e-06  3.7399716254727584e-06  4.1413671217048757e-06  4.2503837340394883e-06  3.9066421283106895e-06  2.9194999192113457e-06  3.9964548672928003e-06  3.3665631123157274e-06  3.1198986922337941e-06  3.4907980419700447e-06  1.2959522276911206e-06  1.2250028800544797e-06  2.9801327743197953e-06  4.0428763442022465e-06  3.0521391115579991e-06  3.2651797963296238e-06  2.7314744875451745e-06  3.3706319538863680e-06  1.8474121831481890e-06  2.1182454012942073e-06  1.3783438542038678e-06  1.5120360622292387e-06  7.5922600622134630e-07  5.5034159028348587e-07  2.6779021807865210e-06  3.9435393481023534e-06  2.3500582475838691e-06  4.0303580014940286e-06  3.4827454981369345e-06  3.7192265730528075e-06  3.3739646915811825e-06  3.6394322861421116e-06  1.3619587509308311e-06  3.8588121887110816e-06  3.8039113635390229e-06  3.4929552456451998e-06  1.9876145223822501e-06  2.1876582352718709e-06  1.4131036985098593e-06  1.9691532996281175e-07  2.3733318460648999e-07  3.7974117196528668e-06  1.5756231524006052e-06  3.3960251774943072e-06  1.5039933388614305e-06  2.3172127182886911e-06  3.5964084013594328e-06  3.3506552057405732e-06  3.5037985048518381e-06  2.2658113082717785e-06  2.5735373497303159e-06  2.7107639724925443e-06  3.4660383574369009e-06  3.6988154639974778e-06  3.4903278231892789e-06  3.6606904472732614e-06  3.1524751932725506e-06  3.6532113634356852e-06  3.1527959539093303e-06  3.3187799056114118e-06  3.0022673755423234e-06  4.0218535182161430e-06  5.0935186189332469e-07  3.6007971914751757e-06  2.2381273222388701e-06  3.7872166806432659e-06  3.9725040939485338e-06  1.1119128041729533e-06  4.1642210216586721e-06  1.1433868245195859e-06  5.3645727904547583e-07  3.3739406732736667e-06  3.3053233458249011e-06  2.4591219861629334e-06  1.9601254056862108e-06  4.1603414330177662e-06  1.0560334673576350e-06  3.5212077125484448e-06  2.9322989973858861e-06  2.2323519829683815e-06  3.3477916979496148e-06  1.2762310089701892e-06  1.7888984067370280e-06  1.0566665604177306e-06  3.5680228480708821e-06  2.3405398450781436e-07  2.5025986687714994e-06  2.1750723560951580e-07  2.7228886976246078e-06  4.0930529574300168e-06  3.2501554079337013e-06  2.7805300174801972e-06  2.1152220440604888e-06  4.0769036277903449e-06  4.1123341762533661e-06  4.2392645575999859e-06  2.8861962811097132e-06  2.2771457907493782e-06  4.1938048267977601e-06  3.4684031342461603e-06  1.2392625814387792e-06  3.8656761422827660e-06  4.0968848115081823e-06  1.4707452148860039e-06  3.1206780955403887e-06  3.5682721889211565e-06  2.9056729876636007e-06  1.3328742919736335e-06  3.4470806707088492e-06  2.7092451496578396e-07  1.9014217594826274e-07  2.4078609816495422e-06  1.6270047424767238e-06  1.7811944348460071e-06  2.8059069478269223e-06  3.1521483146163012e-06  3.9678770550386349e-06  3.3000174005753045e-06  2.9690232654340772e-06  2.6503407463710755e-06  3.0278262937469438e-06  3.1401966366092463e-06  1.6472102120143556e-06  1.7101118605385232e-06  1.3040156737726424e-06  1.1773612726794192e-06  1.2434905393220128e-06  8.5915264590798388e-07  4.0023664836730833e-07  2.5572402754858428e-06  1.4051950910976985e-06  1.3102110709557097e-06  1.9737684723094330e-06  3.2228882895229881e-06  3.3471021887129464e-06  3.0960528470903132e-06  2.7721187492671705e-06  2.4773489866366567e-06  3.1496964816971407e-06  3.5342282626021788e-06  4.1475397827963272e-06  4.0800883871969212e-06  2.2321881939428301e-06  2.8332871645144637e-06  2.4545528976952441e-06  1.3025581667984197e-06  1.4390076985132777e-06  3.9454977816504231e-06  3.9827923323115514e-06  3.9206642626293791e-06  4.0223758754703435e-06  3.4660544505556967e-06  3.5127873483652100e-06  2.6603565265711158e-06  3.6067037116273072e-06  2.3058814843113354e-06  1.8463066219369597e-06  1.3922025299831195e-06  4.0239085549094331e-06  4.2316581349509804e-06  3.7626514272284868e-06  3.0232472023025509e-06  4.1357591717147769e-06  3.9046222477806270e-06  3.1866869801263571e-06  3.8715897755517634e-06  3.2222047424010153e-06  2.8515313484588051e-06  2.5556392285382327e-07  1.4876473195663770e-06  3.3432364999929445e-06  1.6868147780373278e-06  2.4968042545226235e-06  3.9845604974205020e-06  4.2234439799123354e-06  3.3939469348150321e-06  3.9833415136883512e-06  3.6213065347408486e-06  1.3268104807939789e-06  1.3811667066081533e-06  1.5086470629069034e-06  4.0916407262849508e-06  3.5928913169078018e-06  3.0358256268997445e-06  3.8558055103292183e-06  1.3141311275577485e-06  2.9857509853969330e-06  1.5646216915215100e-06  2.1251597983324060e-07  1.3640548724217553e-06  2.8630050608306743e-06  3.9995585212378769e-06  3.4264233523622992e-06  2.4118151637463138e-07  3.2635709298953616e-06  3.1785516084660250e-06  3.7375605515760372e-06  3.7743957228175742e-06  1.2471157777492541e-06  3.6696222007510506e-06  4.0136795308440322e-06  3.7583588339844657e-06  3.5422946836277601e-06  3.3365057792436728e-06  2.8726734308483408e-06  2.3891448971051835e-06  2.5756578146330926e-06  2.1967778285347560e-06  3.7898329629415386e-06  3.4277240607972789e-06  4.0241912604454889e-06  3.6954923132510326e-06  1.1717669103562243e-06  3.9136004171691722e-06  3.8524092013698463e-06  3.0787808827631957e-06  2.1717238589745400e-06  2.8291302903797021e-06  2.1922951974637552e-06  3.2769373907902307e-06  3.0959252192921552e-07  1.2302904983159121e-06  1.9600478519336132e-06  3.0517803064862927e-06  8.7395435361907492e-07  7.7484781495835530e-07  3.2435938776468442e-06  1.0343878171002391e-06  7.7332034871407777e-07  8.5125954855206327e-07  2.1420412706420899e-06  1.6523642145241521e-06  2.8265055368216217e-06  3.2098219078567883e-06  3.2235957427783796e-06  3.1690776166463454e-06  2.1358210211200411e-07  3.7611788761940274e-06  3.4591432396884572e-06  2.3220627149525684e-07  3.1452154258874202e-06  3.8376678593702170e-06  1.0491344681551213e-06  3.5988906122802216e-06  3.4249725455893279e-07  3.8484709620524584e-06  2.9701647722672902e-06  1.7248378929518656e-06  3.0117745864408350e-06  3.6538650947592084e-06  2.5835038824452410e-06  3.2614214869561876e-06  4.0483157686589204e-07  3.7317524196285085e-06  4.0981940641833060e-06  3.4050495114618355e-06  2.2238355549605381e-06  3.7152508988594519e-06  2.4352857210578459e-07  2.8944461203065279e-06  4.8292294360377903e-07  3.8749141294001594e-06  1.2347717259678567e-06  2.7087523864097129e-06  2.3842032245227657e-06  1.2652569226431830e-06  3.5656254261713665e-06  1.2872262245069401e-06  2.2470278324625147e-06  1.8360697956518184e-06  4.0560480535071867e-06  3.7139821718575893e-06  3.8490294482110874e-06  4.2345459215054820e-06  3.1490106804925192e-06  2.0059868099158313e-06  2.1605390920462347e-06  1.8505027285922554e-06  1.5668232332528218e-06  3.8726157884406266e-06  3.6913015195442350e-06  3.9550263069682829e-06  3.4168035023087603e-06  3.6515512424544055e-06  3.0063180108660969e-06  4.0380681929010018e-06  3.3360155722062691e-06  3.8356001184905261e-06  4.2499188289617837e-06  1.0602274797261663e-06  3.1082086752910439e-06  3.9849007206410792e-06  3.5984156667082191e-06  3.4048124501813269e-06  3.5237585553810223e-06  2.2407843744906696e-07  3.8176128132140548e-06  3.3589598944407612e-06  3.1310960828780042e-06  3.2053288572878997e-06  5.2785646924941014e-07  1.7276711040254768e-06  2.8406683911880608e-06  3.7762109746506409e-06  3.5441099535533752e-06  9.2733739802068457e-07  4.0110234993020274e-06  4.2299112127341899e-06  3.0114548952802005e-06  4.1839611205774432e-06  2.7715664196694297e-06  1.6468740635584989e-06  3.1995788453559580e-06  3.3053029024208408e-06  1.9134506497231285e-06  2.0746274261909875e-06  3.4132623691439297e-06  3.1869329482966864e-06  2.1116689629538976e-07  2.2035920491608713e-06  1.6094389834065217e-06  4.0775832579820859e-06  3.8709989298610197e-06  4.0305653622196436e-06  3.3509565154808518e-06  3.6515878789893088e-06  3.0863055859945308e-06  3.1418324276003220e-06  2.6345190868014481e-06  8.3656539767248562e-07  3.0026619791419203e-06  2.4619599260956194e-06  3.3386465087967597e-06  2.9749190155702274e-06  2.8445819631863271e-06  1.3738505078752343e-06  7.1707101185744284e-07  3.9142667605430528e-06  1.7832024455544256e-06  4.2037524359948036e-06  2.4699191903702726e-06  3.9405596047563805e-06  3.0910276526182329e-06  1.0321300990687914e-06  4.1668007433933074e-06  2.5704081376816343e-06  3.9119500009901848e-06  3.0764563223021128e-06  1.4345075502236877e-06  1.5144398601512638e-06  3.8664271212919540e-06  3.2043525611284267e-06  3.8167993699787993e-06  4.0450079480572660e-06  4.1405508836608039e-06  2.5140161311389424e-07  3.8975766891797609e-06  3.1896321996818314e-06  3.4189627617311302e-06  2.8360806481378876e-06  3.0453449989536861e-06  3.3725453142720201e-06  3.3159652844538127e-06  3.5918227817364524e-06  3.6195674995881284e-06  3.5770739966837107e-06  3.2498548992079055e-06  3.7284695564689480e-06  3.0291511533119007e-07  2.4332812237874283e-06  1.2697572869683045e-06  1.9977209454209732e-07  3.1670764651505624e-06  4.0351749413777593e-06  3.5134787811949534e-06  2.7556601174661521e-06  2.6921607600767193e-07  1.3958389765053146e-06  9.7742091331408840e-07  3.5259481089956148e-06  2.3861497291455772e-06  1.9159347172334620e-06  1.6786017000829732e-06  4.1936663364764772e-06  2.3023318824392907e-07  3.7405368150615076e-06  2.6814161754264957e-06  3.5500224734574550e-06  3.7521498512438533e-06  1.1232762145715524e-06  8.4948171081276466e-07  3.9819920124189573e-06  1.1323604643633671e-06  3.4039294064661738e-06  2.9366909872017774e-06  2.0310286105997369e-06  3.1761278093483384e-06  1.2639918463179480e-06  1.9105546192639996e-06  3.0729953305430102e-06  1.7658576463597929e-06  2.0434736426536943e-07  3.1262535465660106e-06  4.1362567446053248e-06  4.2568773881942318e-06  3.9363709440695971e-06  3.9013684570174725e-06  3.6656486606983156e-06  2.9445651937464465e-06  3.4314142657347327e-06  4.0764530338847302e-06  4.1058985458833436e-06  3.9361892611519683e-06  3.2437971667946307e-07  1.3034357422103258e-06  3.4153404085442358e-06  3.7157267440154591e-06  3.1202967945411456e-07  1.1965322232059961e-06  3.3414901422841873e-06  3.3383416911540274e-06  1.6511109103858533e-06  7.0434482189610076e-07  1.1456611380349858e-06  2.4813224002592398e-07  2.7866868832135001e-06  2.9161564689481841e-06  4.1798791890813306e-06  2.8098362703170366e-06  2.8288228292160091e-06  3.2830689558373671e-06  1.8873866888255555e-06  3.8915262973308053e-06  3.9362997625746522e-06  3.3199067594942291e-06  1.9412151771079603e-06  3.5973753995304801e-06  3.9082274884857784e-06  3.9206065227723127e-06  3.2959953245123409e-06  3.3370219895746560e-06  4.1920842475144880e-06  3.7085176294410755e-06  4.1505966099801590e-06  1.5547860185052113e-06  3.2761324127739439e-06  2.3836203040648420e-06  2.1760170659338949e-06  2.0793227500472724e-06  1.8800630594136830e-06  1.9307549487058993e-06  3.6247328760041412e-06  3.6836854410735445e-06  2.3038326739277244e-06  4.0267768915313957e-06  3.1762299312254277e-06  2.9239282098741552e-06  4.2080671452877118e-06  4.0746545093605974e-06  3.8733867609531292e-06  4.0847188167625546e-06  3.0522069474382210e-06  1.2765416324776493e-06  1.2530399218508632e-06  2.9583634677131184e-06  2.0808728042092475e-06  2.9386351829173211e-06  3.6847975581356423e-06  2.3057505684687542e-06  2.1716693121245722e-06  2.5572302483129265e-06  2.5025226380382388e-06  2.6590514203815566e-06  2.9699576373957815e-06  4.2349854411687943e-06  3.8686428504041845e-06  2.2883958366748601e-06  1.5302777119069429e-06  1.3692591905401876e-06  2.4345015341530309e-06  1.8039638530380429e-06  1.3060554287314231e-06  1.2893912529791016e-06  1.4938583387296741e-06  1.9525571626496730e-06  1.6334202249457377e-06  1.5591076353702062e-06  4.0421729283127373e-06  2.7563531513691509e-06  3.9049622277265376e-06  1.5859246729056828e-06  2.3639205992374574e-06  2.1780672223031851e-06  3.1954203728961894e-06  2.9003711038385119e-06  4.0077619045991681e-06  3.9936900167908888e-06  3.7127557678020356e-06  2.4009917820452731e-06  2.2009869080224440e-06  2.6325348899159789e-06  1.3276313231386655e-06  2.8356961641980883e-06  2.3516312640112858e-06  3.3764594138315727e-06  3.3687984818511899e-06  2.4897751200556232e-06  2.9316723880241566e-06  2.6922644625907115e-06  2.9576070724140378e-06  2.0423739519294062e-06  3.2486920925386952e-06  1.4238255163439916e-06  2.6020555025643384e-06  1.5784407388704754e-06  3.1499930146750401e-06  2.0451188599281872e-06  1.2065598381622424e-06  1.2985891738168226e-06  1.2352379093148301e-06  5.6795346332170181e-07  9.7912293988846108e-07  1.1467850630051806e-06  3.8775218840078927e-07  1.4521382039167218e-06  1.7229342999616169e-06  1.2516133423963961e-06  1.2822145872100376e-06  1.2518191697305973e-06  1.3631678173601469e-06  1.3131836727164760e-06  1.3354638508955894e-06  2.2051031466064473e-06  2.6148769298383121e-06  3.1479878425817040e-06  3.3373818853475832e-06  2.7304594583184717e-06  3.3572011151306393e-06  3.0768139658736286e-06  2.9894610328761573e-06  3.7601051134693266e-06  2.2400990430099276e-06  3.8084455351390781e-06  4.0830893339382449e-06  1.3474134782888022e-06  4.0365343845856534e-06  3.7033370268014080e-06  2.7301247328885065e-06  3.3152200197325250e-06  3.2707829304425173e-06  3.3538085886635722e-06  5.4111693900134692e-07  3.0027316575014812e-06  2.6733141339698021e-06  3.9132677471833414e-06  3.4474798372858284e-06  4.1472237303148601e-06  1.1036311703709330e-06  3.4332050504520042e-06  3.7514479268295800e-06  3.9885237295721902e-06  4.2469638119402645e-06  3.4789280650797226e-06  2.7571007221811508e-06  2.4184094553139105e-06  3.3431163031128025e-06  1.9401531392255378e-06  2.1995309770040897e-07  1.1720489849409011e-06  3.1725857228919134e-06  1.3646241799132637e-06  3.4026585509655797e-06  3.6461416425002557e-06  3.0397206842292668e-06  1.4319643875937514e-06  4.2238681512710722e-06  2.8733017627201211e-07  2.8004151549333414e-06  4.0515331565759838e-06  3.9841086827049843e-06  4.9676075850028890e-07  3.3669472919430907e-06  1.0212598095020600e-06  2.4080970280921785e-06  2.7630182726248417e-06  3.8430230378134675e-06  3.5557918547755262e-06  3.0321085947687233e-06  4.1960445435988545e-06  3.2998826859909567e-06  3.4827674415249697e-06  4.0018981185782142e-06  3.5766586368717467e-06  3.7186895355167480e-06  1.5081043265127377e-06  4.0609710600816779e-06  3.9140564088035681e-06  2.9378967606483457e-06  2.2757651637047710e-06  3.5368170011495694e-06  3.4693291241830817e-06  4.7498403149746228e-07  3.0852196655114209e-06  1.7770088522930857e-06  2.8269344879705950e-06  1.8024998634257697e-06  1.1516304358483402e-06  8.8346426146693882e-07  2.8214339419067288e-06  2.8668091900535506e-06  3.6432876653047031e-06  4.1983227266826532e-06  1.2134895819796181e-06  3.4293080369691555e-06  3.3988349799918564e-06  1.5915271562274429e-06  3.4407675444674408e-06  3.0643209113626239e-06  2.1817740237679111e-06  3.2922805615649357e-06  4.2006723522972069e-06  3.4727432598745845e-06  3.1343830931752490e-06  4.0465832870838855e-06  2.8846429149540843e-06  2.9316772811165097e-06  3.1534243384050291e-07  3.8466540026248932e-06  1.4641279964553833e-06  4.1550652372996619e-06  3.6233524651348499e-06  4.0894974413066233e-06  4.1541773684010303e-06  3.3154827789436314e-06  3.7314224898144829e-06  3.6826971226808805e-06  3.9609333304985967e-06  3.0754446950845646e-06  3.1121061316658633e-06  2.7000009795310544e-07  2.8065220483832546e-07  3.9974946097799501e-06  3.6367251597402235e-06  2.9825343853365841e-06  4.0871947325475111e-07  1.3830132464775918e-06  3.0416116213469124e-06  1.1060348072361909e-06  9.8484165462452903e-07  1.7268961054565104e-06  3.7906794563520807e-06  2.2683223571605717e-06  2.5647976889190037e-06  1.2720857900808042e-06  3.1351914851652824e-06  3.0381079664772108e-06  1.7828729601663451e-06  2.1795992859324804e-07  1.3562168103429836e-06  1.2865733423117386e-06  3.5169003514909452e-06  2.3776863481699289e-06  3.3681071836041796e-06  4.0587138033971983e-06  3.8781731165548700e-06  3.6508680751879828e-06  3.8567402906970701e-06  3.4096971931365189e-06  1.7211939779848931e-06  4.1954382948324139e-06  4.2376833013004269e-06  3.8381394478586265e-06  3.8108645677241900e-06  3.6589489986476201e-06  3.5001565303981242e-06  3.7768451809317798e-06  3.7433268285098962e-06  2.6765249048510617e-06  5.6793335161710443e-07  7.8247597628654120e-07  3.8837840817083357e-06  2.9604127828133588e-06  4.2028430988009629e-06  4.1312487246764114e-06  3.6760983154028639e-06  4.1401585864430432e-06  3.0142856331302203e-06  3.2984384998568281e-06  1.8150284364473876e-06  1.9753403017063598e-06  2.3354594372426983e-06  3.9253338023487530e-06  4.0350446052762914e-06  3.6921063421499609e-06  3.9320660258627589e-06  1.8959708899115359e-06  2.5902279582632775e-06  4.0741535297702953e-06  3.2248021620204067e-06  3.0420181381562100e-06  2.4352207408562049e-06  1.8517990442954018e-06  3.7685155159289474e-06  1.0593010649065063e-06  3.4544869399021399e-06  3.8044447830716021e-06  1.7843594858353084e-06  2.4647504043181123e-06  1.4759222305545255e-06  3.4207654037981984e-06  3.3777011041429301e-06  2.7278539692470342e-06  1.7328940428101622e-06  2.0942758090537661e-06  3.1274370284785897e-06  2.3491742249224981e-06  3.8026675281822277e-06  1.4909070904932909e-06  4.0373809695365195e-06  3.4254012711829095e-06  1.4052131197009339e-06  3.3269505585458400e-06  2.7857827631651417e-06  1.4198566379372842e-06  7.6583942668383301e-07  2.9889510603156998e-06  3.4308669694639225e-06  3.7520878625218107e-06  3.5123474131614980e-06  1.2728179314426739e-06  3.9992525529433065e-06  3.3794807118481917e-06  3.9487769839935301e-06  2.8272622296839979e-06  3.2562317151001686e-06  3.2833088134048335e-06  3.7719344439098294e-06  3.8178926161768857e-06  3.8044664234675830e-06  3.3773515944604391e-06  1.2277695117748587e-06  4.2571943127020270e-06  2.6869253819636568e-06  2.8639426961353729e-06  2.4740107757298355e-06  2.8654822429905484e-06  1.2715612796741081e-06  1.3483784721046606e-06  3.1277037955343211e-06  4.5705690309265443e-07  1.1290724486081488e-06  3.7576861337783263e-07  6.4842915011623100e-07  1.1952259904240718e-06  2.8173729302955194e-06  1.1660667899212195e-06  3.5607343959538142e-06  3.9053362904459000e-06  2.2653138075186470e-07  2.2303153225656615e-07  3.2226431047838595e-06  3.0144692948445366e-06  6.7426447470450042e-07  3.7627226026672468e-06  2.0510877193892009e-07  2.1886748692419364e-06  1.9116591780744088e-07  3.1701158633644121e-07  6.2275267850554046e-07  7.7292774560333881e-07  3.9301394724150130e-06  3.9109697878079840e-06  1.9058677230725852e-06  4.1360439802489986e-06  3.7951023177934294e-06  4.0912018097810279e-06  3.0876138891689888e-06  3.0537660998935510e-06  4.1179715690477734e-06  4.1083034964905160e-06  1.2914820245525343e-06  3.0956171831916986e-06  3.4524196627063960e-06  3.3542548584106989e-06  1.3374098423430786e-06  2.0986282025251690e-06  3.1311370445362799e-06  3.9340256247439403e-06  3.8842739169545418e-06  2.3063519489149445e-06  3.4521416037571642e-06  3.8410686128281234e-06  1.3370059802909494e-06  3.9750198445485424e-06  1.2620372711942229e-06  3.1056146043186042e-06  3.2831463902801505e-06  1.8001180407639709e-06  4.0784704792636875e-06  3.5338640149403