<?xml version="1.0"?>
<VTKFile type="UnstructuredGrid"  version="0.1"  >
<UnstructuredGrid>
<Piece  NumberOfPoints="2446" NumberOfCells="4585">
<Points>
<DataArray  type="Float64"  NumberOfComponents="3"  format="ascii">0 0.41 0  0 0 0  2.2 0 0  2.2 0.41 0  0.2404508497187474 0.2293892626146237 0  0.25 0.2 0  0.2404508497187474 0.1706107373853764 0  0.2154508497187474 0.1524471741852423 0  0.1845491502812526 0.1524471741852423 0  0.1595491502812526 0.1706107373853764 0  0.15 0.2 0  0.1595491502812526 0.2293892626146237 0  0.1845491502812527 0.2475528258147577 0  0.2154508497187474 0.2475528258147577 0  1.1 0 0  1.1 0.41 0  0 0.205 0  0.55 0 0  0.55 0.41 0  0.275 0 0  0.275 0.41 0  1.65 0.41 0  1.65 0 0  0.8250000000000001 0.41 0  0.8250000000000001 0 0  1.375 0 0  1.375 0.41 0  1.925 0 0  1.925 0.41 0  1.5125 0.205 0  1.7875 0.205 0  0.6875 0.205 0  0.9625000000000001 0.205 0  1.2375 0.205 0  2.2 0.205 0  0.4687002074688797 0.2068568464730291 0  1.99375 0.2152743902439024 0  2.0625 0 0  2.0625 0.41 0  2.2 0.3075 0  0.4125 0 0  0.4125 0.41 0  1.7875 0.41 0  1.375 0.1486128048780488 0  1.5125 0 0  1.7875 0 0  1.5125 0.41 0  0.8250000000000001 0.2613871951219511 0  0.9625000000000001 0.41 0  0.9625000000000001 0 0  0.6875 0.41 0  0.6875 0 0  0.1375 0 0  0.1375 0.41 0  1.2375 0 0  1.1 0.1486128048780487 0  1.2375 0.41 0  1.65 0.1486128048780487 0  1.126715909090909 0.2793064024390244 0  1.676715909090909 0.2793064024390244 0  0.8517159090909092 0.1306935975609756 0  1.348284090909091 0.2793064024390244 0  0.34375 0.3032389320646208 0  1.894702181800738 0.1282910975492754 0  2.092797818199262 0.1282910975492754 0  1.85625 0.3075 0  0.61875 0.3075 0  0.61875 0.1025 0  0.3648540804333487 0.1240075933101478 0  0 0.3075 0  0 0.1025 0  2.099172119769978 0.25625 0  0.48125 0.09238439620688085 0  0.5781001037344399 0.2059284232365146 0  0.48125 0.3196743479159776 0  0.7265881057911006 0.3055240343720796 0  1.99375 0.08395950269330846 0  1.459960956013612 0.3075 0  1.569025960719943 0.2986889805672169 0  0.75625 0.08213100772579164 0  1.03125 0.3278689922742084 0  0.923871252904788 0.3078247185783941 0  1.959375 0.3126371951219512 0  1.749222215368287 0.1025 0  1.275777784631713 0.1025 0  2.2 0.1025 0  1.225938124459196 0.3075 0  1.550777784631713 0.1025 0  1.000777784631713 0.1025 0  1.44375 0.07430640243902442 0  1.16875 0.07430640243902437 0  1.899250267340833 0.2229966846119207 0  0.1020898364287272 0.3140258291809757 0  1.766482954545455 0.2934032012195123 0  0.3405058858996321 0.2119987970531874 0  0.7710785630958338 0.1710968191298857 0  1.046078563095834 0.2389031808701144 0  0.2 0.3400647632937836 0  1.421109702350723 0.2261157654379721 0  0.2800464974185557 0.08982544815605742 0  0.098916018031319 0.09171660955420841 0  2.13125 0 0  2.118919042110979 0.3422084711244843 0  1.30625 0.41 0  0.89375 0 0  1.597888256393107 0.2173787389261347 0  0.20625 0 0  1.829299675393195 0.07400700849299596 0  1.71875 0.41 0  1.16875 0.41 0  2.038220665644273 0.332420740103091 0  0.34375 0 0  0.417496017710808 0.2696595573092803 0  0.2 0.07687845740457822 0  0.9295982307099278 0.1343158415898188 0  0.07390688010811153 0.1697064032433452 0  0.5238366813727013 0.2578302467013575 0  0.05452951551825875 0.25625 0  0.5229630068078351 0.1548816096928243 0  1.452769549894695 0.1548122580621249 0  1.369219062229598 0.07430640243902442 0  1.30625 0 0  0.8504409521244898 0.3356935975609756 0  0.8821881244591965 0.205 0  1.720943423819132 0.1714577452753128 0  1.157188124459196 0.205 0  1.094219062229598 0.07430640243902437 0  1.03125 0 0  1.304056576180868 0.1714577452753128 0  1.67579304192913 0.07430640243902437 0  0.2751941921308361 0.3346083473122598 0  1.209670467133757 0.1362100266964769 0  1.025335513626278 0.1700681449722324 0  0.7562500000000001 0.41 0  1.58125 0 0  0.7567170593862014 0.2409196493502535 0  0.6926714215682891 0.1272249611432207 0  0.4139715849905988 0.3397932387114203 0  0.9840787304190477 0.2717749043358119 0  0.06875000000000001 0.41 0  0 0.35875 0  0.9281250000000001 0.06276726142697993 0  0.5507396469029935 0.3219409231578227 0  0.5504468037989405 0.09136885600634273 0  1.58125 0.41 0  1.631724228912893 0.3381867502687533 0  1.825608881788174 0.14499488549201 0  1.85625 0 0  1.44375 0 0  1.44375 0.41 0  1.85625 0.41 0  2.13125 0.41 0  0.7562500000000001 0 0  0.89375 0.41 0  0.4812500000000001 0 0  0.34375 0.41 0  0.4812500000000001 0.41 0  0.20625 0.41 0  0.06875000000000001 0 0  1.16875 0 0  0.61875 0 0  0.61875 0.41 0  1.03125 0.41 0  1.71875 0 0  1.99375 0 0  1.99375 0.41 0  1.340625 0.3489494290853124 0  1.134375 0.3489494290853123 0  1.700180620188976 0.3438659752031281 0  2.135782184673599 0.07126652247502523 0  1.668441847249787 0.2129203728327609 0  1.295782514339747 0.2378437748815763 0  0.8233075729931248 0.06842334294821524 0  1.409375 0.3520314716057996 0  0.403505597322782 0.182067236678212 0  0.378125 0.05794951541303489 0  0.3043468223249023 0.1518321115979534 0  2.129248544730567 0.1906135162504124 0  2.060771381434487 0.1989445750470348 0  2.013252586573865 0.1496169464686054 0  1.942766402200229 0.1734448904596831 0  1.895522487186454 0.06076163953489683 0  2.069553871656643 0.06605731020975725 0  1.274680914880868 0.3520219391081363 0  1.614713220494657 0.09473434380863296 0  0.7899021319497519 0.3149123934144827 0  0.69518737419149 0.0634051089053758 0  0.2971740475496061 0.2592172353407536 0  1.72990325744076 0.2380068107952482 0  1.356580098625191 0.2120393231351682 0  2.034370752044885 0.2668681600792073 0  1.51768709249349 0.3426260931494756 0  1.561883724969884 0.1650446847858835 0  1.197344062229598 0.2523725417393646 0  1.804085235518364 0.3468178408964637 0  1.817887819205233 0.2589243285818559 0  1.905897727272727 0.3485060975609756 0  0.6719798073392919 0.2688965171178177 0  0 0.05125 0  0.653125 0.35875 0  0.6396896119294488 0.1627615407790282 0  0.4274150154087412 0.1242548552168279 0  1.192836486056382 0.3562350748565544 0  0.8279124365364005 0.183856489168822 0  1.097485222388854 0.2083571153401724 0  1.28257088594801 0.2944411014911587 0  1.474860187679412 0.2504218616229368 0  1.406767003493824 0.2829282258560709 0  0.446875 0.04619219810344041 0  0.515625 0.04585361801037557 0  0.592043440706648 0.05125 0  1.845656689180403 0.1998310418452388 0  2.144958525570388 0.2909790873294231 0  0.6171090763650112 0.2492366900333857 0  2.2 0.15375 0  0.5145586920831158 0.3648371739579888 0  1.57794966442982 0.3540357145964566 0  0.721875 0.3633107922168974 0  0.0496154796471391 0.333125 0  0.5843750000000001 0.3662560860076676 0  0.5810878747760798 0.1474002776121195 0  1.508991196088596 0.1421783375065625 0  0.8840670607017558 0.2640994375393898 0  0.09776612425612034 0.2204896805326566 0  1.50436820029908 0.06143401634903343 0  1.223857000523521 0.0823554862453532 0  1.153316824384777 0.1289850171317837 0  2.148922302309752 0.1258841779285271 0  0.309375 0.04312325590431198 0  1.621993280276081 0.2841214267927899 0  1.550118654119087 0.2461998729100966 0  1.327182649291491 0.1216967252533594 0  1.051977450479407 0.1221382572915816 0  1.753125 0.04556020050186112 0  1.271875 0.04556020050186116 0  0.9816084133102366 0.05126138213476004 0  1.039051841454368 0.0572224914831029 0  0.9719230514536006 0.3480477870845102 0  1.94956388244759 0.1180512551534177 0  1.949997712993411 0.04965831614304109 0  1.771961817615021 0.1530278789497521 0  1.909246823951428 0.2812757146784527 0  0.2459536687882397 0.04668633953831142 0  1.948575539857022 0.2445328248721197 0  1.697271520964565 0.1233917627620729 0  0.7964897648514618 0.1211426571931604 0  1.065625 0.3689344961371042 0  1.085849084308977 0.3170853572226867 0  0.4702981435440001 0.260434880697798 0  1.577403511714593 0.05463601888079143 0  0.05622663515370135 0.05493816910862376 0  0.3267207591099919 0.3566194660323104 0  0.9003051618565143 0.3564049499960621 0  1.751571320346033 0.3651102912045228 0  0.1583785085108421 0.2994699345738728 0  0.1455283439499995 0.3542795598723423 0  2.2 0.35875 0  0.2347662494194072 0.298325008655211 0  0.1527284455616188 0.1065771775690181 0  0.1382139529076665 0.05427454456341477 0  0.8749341636311069 0.05110114999892954 0  0.643661668713109 0.05693499781019222 0  1.466879772203159 0.3611261772912453 0  1.990280163552011 0.3564754268533217 0  1.17471064520912 0.2990917256188288 0  0.5202693090594349 0.206382495511728 0  0 0.25625 0  2.2 0.25625 0  2.2 0.05125 0  0 0.15375 0  1.853978576207987 0.35875 0  0.9787513713939683 0.1487523696999336 0  0.240625 0.3722153812029779 0  1.515638456102889 0.2882700110184686 0  0.09048297387599738 0.3637717362208066 0  2.150453692751374 0.2387066338105111 0  1.323782677156475 0.04897634338873398 0  0.8074131292871642 0.3624701995505916 0  1.409375 0.03715320121951221 0  1.406484531114799 0.1087852750766809 0  1.134375 0.03715320121951218 0  1.627401732573545 0.04552157221025036 0  0.1170173172005315 0.1427610859166811 0  2.045405893604797 0.1105340662939892 0  1.255408269734577 0.1577307500159216 0  2.028125 0.03707597992059326 0  0.4743610090857199 0.1421513964721819 0  0.9354010469015898 0.250631300585664 0  0.04420832937638274 0.128125 0  0.8922386349349938 0.0992956419364831 0  0.1197849154434487 0.2663398672460083 0  1.248258025468107 0.2565907092181813 0  0.3746885856929528 0.370723531618974 0  1.203125 0.0366132337404304 0  0.5724622277005015 0.2751253816079333 0  0.3365425205162783 0.08395777655057959 0  2.072662025974815 0.2975086504196739 0  0.4581080832182547 0.3648371739579888 0  0.3874522734668214 0.2295447548840689 0  0.7827853612484443 0.04106550386289586 0  1.887722846421017 0.1760882698830035 0  1.472640588990488 0.1118278026240017 0  1.865937103925594 0.2604137786483804 0  1.463913572748262 0.2030442564990043 0  1.376426316059077 0.3186741374914345 0  0.6641993820150034 0.3141688596240831 0  0.2943117490824315 0.2130987422685822 0  0.3478153998082709 0.1666571081082676 0  0.3427990510599805 0.2575950027870776 0  0.7997118993855807 0.2216171933356366 0  
[...]
<PointData  Scalars="f_10-2"> 
<DataArray  type="Float64"  Name="f_10-2"  format="ascii">-1.4889516101152390e-18  1.4184657912907676e-17  5.4553444734120008e-68  3.9050637987001820e-68  2.9748716243705365e-12  6.6248344179829835e-12  5.8834551746091605e-12  3.0598553397974139e-11  1.2237264036596268e-10  1.9134593231565230e-10  1.4682938341261099e-10  1.2513738976470982e-10  7.5392449721090714e-11  1.6791620498269971e-11  1.2704967468836055e-36  6.7325635560718009e-37  3.2152786254911680e-13  6.5499453966189507e-22  6.3637780232720419e-22  -7.0889972616395903e-16  2.0166466051483657e-16  2.7996030498281489e-52  2.7253311301833833e-52  3.2584130509057075e-29  4.5479453152885916e-29  2.8242284815738588e-44  1.6847635538292580e-44  5.2421695460943455e-60  2.3361052901252922e-60  7.5420687469769677e-47  7.0226030621193557e-55  5.0491668484510515e-23  5.4148801335793152e-31  6.5619829733825288e-39  8.5854590856355861e-67  1.0684730527241367e-16  5.4857437797026842e-61  4.9986431527129253e-64  1.3797226619793698e-64  3.3498262525874913e-67  1.4964205667218005e-18  9.5935030398311097e-19  8.7965671036843368e-57  6.3712406884141402e-43  2.8164602271660661e-48  2.6282471969375531e-56  2.7202211200100116e-48  4.1364842632941227e-27  5.0276185481089970e-33  1.0583735290187540e-32  1.3453949305253814e-25  3.6878000314871260e-25  5.2196150056669601e-15  -1.7510923023882683e-15  2.8523562487890758e-40  5.4515397306995087e-35  1.6994924089251507e-40  6.2393449188721333e-51  5.6430492024538539e-36  7.2631183843171898e-52  7.3941760853501457e-28  2.5861662083524372e-42  9.1149246186064411e-15  3.7820565444819261e-58  4.6698535674262983e-64  3.5223072178390157e-57  7.3279247350712767e-22  1.2060184015510601e-21  9.9290664800976350e-15  -1.1391897791253929e-14  3.5079454912115484e-14  4.5008403081967373e-64  4.5719485380666869e-18  6.9587773612324218e-20  1.5573650782719797e-18  8.4822816421054951e-25  3.3930208964320192e-61  1.0662673837669370e-45  7.7772430337357295e-49  1.1778044688293939e-25  1.7283540085376060e-33  3.0372105831907828e-30  3.5360715429525254e-60  6.3712607089047210e-54  3.8320596484348315e-40  5.8456742926308700e-67  6.1050711982815838e-39  4.2591275400392674e-48  2.5313380770691015e-32  3.9859636539661744e-45  2.6649489235760978e-37  3.0752502861962850e-58  -1.5260911260275601e-12  1.5331078336732021e-54  2.5550814224140031e-13  1.8591985620011626e-25  1.9118675711482388e-33  7.1506823112528323e-13  2.7846457221090337e-44  5.1156049044521310e-13  -1.2639936226505474e-12  2.5497995639386346e-66  4.1922832714685485e-65  1.5639730126755834e-42  4.9857161470292936e-31  2.1342504050262645e-49  -6.3987819866296682e-15  2.1264194962733958e-56  2.7134278241933851e-54  1.4568212753773422e-38  1.0086163792264761e-62  1.4226308931359459e-17  4.4879644253413851e-16  1.3374935854998226e-12  4.8285709931213514e-30  1.3908659479370239e-12  1.0942709363450006e-18  -3.6062598674811389e-14  2.0340476756596965e-18  3.9066538382606932e-45  5.1328629076421892e-43  2.3852471772760737e-42  1.2879879834680823e-28  9.9947961713136193e-29  5.8948385381086408e-53  1.3026394902517606e-36  3.8745109280268071e-35  1.5368814232593408e-34  7.5730916342044933e-41  7.1753342273919502e-52  1.2670703377392661e-13  3.4638916869470712e-38  8.6140537129170472e-33  7.5849779569967308e-28  3.8549150535096325e-50  4.2244782478549617e-25  2.3536476664566695e-23  3.7462292995758018e-17  8.3294336255765596e-32  -5.5695165337960082e-16  -4.4615900476658161e-17  1.0658732559924371e-30  2.3779473676445265e-20  6.1015623813217359e-20  2.4594021101878018e-50  7.1039963789833222e-51  4.2317102350549842e-56  3.1594647299526091e-58  1.8024354018482070e-46  2.6541048150960796e-46  2.4304296842916435e-58  2.5847539359319549e-66  4.0438935118126332e-27  5.3366676434198040e-31  5.0234773724705731e-20  1.1810609037273060e-17  3.3158226395272746e-20  -9.3414699684641627e-16  1.8612962891204753e-15  2.6443377929879186e-38  1.8089605914571677e-23  1.1457010359718298e-23  8.2582825016847034e-35  2.9156813308619134e-54  3.6944436589788080e-62  2.2943600133876159e-62  1.4626201780842134e-42  1.2355078110790822e-36  5.5971036395556440e-53  1.8482378201319985e-65  1.8267395323317093e-51  1.3442188655096891e-40  1.1227494109533168e-27  1.4949102589244208e-44  6.6886510721994264e-15  5.0045423612336278e-16  5.1632155579556235e-13  6.1823473378775894e-65  5.9638726881607121e-63  1.2569072208158312e-61  1.8370386646437682e-59  2.1039377027066647e-58  1.6014809507117773e-63  1.1306169829845376e-40  5.2112640145128653e-50  1.1413551312853668e-26  2.7651985763733082e-24  3.4043943243420758e-13  3.0373177540484806e-53  2.3736290555468892e-42  2.7351179604049709e-62  1.2854647702694374e-47  2.7584598610086955e-48  7.3934550392044224e-38  5.6734141821004194e-56  5.2090452847296710e-56  5.7913669020522396e-59  6.4574425306229016e-23  -1.8474333877913456e-15  1.0923511613417911e-23  1.1966263381833686e-21  2.9344447232859574e-16  2.3336835026045235e-38  5.0217679454876565e-27  7.6584314091254833e-35  1.8304273265885801e-40  7.5128511203349229e-46  4.6427771035681609e-44  5.2417590067156970e-18  9.0127030403608982e-20  8.5270187771989824e-22  1.1484182460404797e-56  1.5978840788514689e-65  3.4102480651847497e-21  6.7462486150060118e-67  4.0590583829263818e-20  1.3861669232054735e-49  1.4960652239470575e-25  -2.9842610152789482e-14  5.8343854894290986e-22  4.2603623464291225e-20  8.2737331945677934e-47  7.7311513594056747e-29  1.7249966468543028e-11  4.7318500694126452e-47  9.4117367311136371e-39  1.6025742636339980e-36  1.1998151340178219e-65  6.6934923166736349e-15  2.4902394186610952e-50  4.6897235744687333e-48  1.2363572057504093e-41  1.3219465530191782e-33  2.1844182136688745e-54  1.7829130917851395e-40  2.6141522887560369e-32  7.5620595429053657e-34  4.1102848107009284e-32  7.9564452618731547e-60  3.7903752505662994e-60  1.7022812195967111e-54  1.0872729460474334e-58  1.3600082359674217e-14  9.8675317214213975e-60  2.1323728157737980e-52  2.3812541670758031e-26  6.0004721965546377e-35  5.0385778371822189e-35  2.8316471168920134e-17  3.2192373115944858e-49  1.5180233474412698e-13  3.1299239284636270e-15  2.8142942621594687e-30  9.7361037350516995e-55  2.3149863572305681e-11  -7.6033972108350206e-14  1.6841818652757770e-67  5.3649947305888660e-12  -2.3437335275816704e-12  -4.2378255710437670e-13  2.4885697318122637e-29  4.9341159604928867e-23  2.7931546417107133e-46  1.7747933768653213e-61  1.8468551120307876e-37  3.2507940809214779e-18  -9.7306995482258688e-14  6.3176868351566474e-67  2.8821797146849762e-67  5.5919392333880293e-13  1.4786955667528359e-57  1.8573825032933741e-31  1.6498382971709933e-14  3.0771664131326817e-47  -4.9065739132593940e-14  1.5243198576010050e-65  6.8652427852352020e-42  8.3970302149142210e-28  1.3063166750826032e-44  6.2728613958940378e-44  7.8651535452174559e-37  1.0070620182155962e-50  -5.3041815978445244e-11  1.1135901137405631e-62  1.7780104844543372e-39  1.5299351361446786e-62  2.6421250317303253e-17  3.1634888428410889e-30  8.9836723945514029e-13  3.1658184764253463e-29  3.8512398242415818e-11  2.6266994587129354e-39  1.0514341105445093e-16  1.1770097050367622e-38  3.1064175577275978e-20  1.6680688650237910e-14  1.7896127876215638e-63  1.1859519557088708e-18  1.1874784397925027e-14  5.2779733662173494e-27  7.7753605967601994e-58  7.5561006817554059e-46  2.4851201275560118e-57  1.8291409717165731e-45  2.3261672567134952e-43  3.3370071026354025e-23  2.0415469295402136e-12  1.0979858071163083e-13  3.7198378528933733e-14  2.9859492417728217e-26  3.1259459660062598e-53  1.2401513348300723e-54  9.4462352445392458e-65  5.6208198538315884e-24  1.0324147158041238e-24  4.3060122939841299e-32  3.7277192663708202e-33  8.6310102096326683e-35  1.8847418044502678e-43  4.1260149673206036e-12  2.0573886258032704e-63  1.5074138038333500e-49  1.1212796852283144e-21  9.1814234646564274e-24  6.2310184308684234e-56  4.0975007973289173e-13  5.8565441915268358e-61  2.4651645406842114e-66  2.1812089520488184e-65  5.7380037162400414e-64  1.2743293191481561e-13  1.0527376306752951e-25  2.7559264838209861e-51  3.5084441602754965e-55  1.6095412711121219e-61  3.7113016164746495e-17  3.5932871743915873e-43  8.9154290397607994e-38  2.3126816903898219e-47  2.4870565271200883e-50  2.5454282195288289e-49  1.7820865740387919e-30  1.7205261047170804e-53  4.7178906157183793e-53  8.8058082572724668e-34  1.5615498290259911e-33  2.0133774233917948e-66  1.3381098089267103e-66  -4.5919257318968946e-17  4.7526882079189229e-23  1.0531993940451126e-26  9.2538754927251234e-30  1.2111170476304145e-28  1.3499563965144978e-50  1.1536512165069229e-55  2.0916335836812295e-57  4.3292357300128140e-49  2.2264056685020981e-60  1.3826593092032907e-15  1.6151646684590260e-11  2.2965479214619521e-57  3.7853269042501791e-35  8.0556597233651889e-54  4.1578652652077548e-52  2.5465493191892101e-31  1.2243937969147030e-16  -9.7437828693175744e-16  7.2096251494176769e-63  6.0407546625012925e-32  4.6547058128092831e-48  1.0431976878298437e-39  6.1032188723172803e-64  3.5274604031477851e-46  -1.6584244527070666e-13  4.2520202833818236e-34  4.2659946242265886e-16  3.1168369510357018e-49  4.9332578238051404e-26  5.9676104543942596e-16  2.7793554626862128e-17  1.2961380718812343e-24  4.6167205682105609e-36  6.4878249789047659e-28  7.3876004641740658e-36  4.6103321729172126e-36  9.5267558193384226e-12  7.0452452582211615e-66  1.0997561263417405e-41  2.3317728007093537e-61  3.6240732436962241e-28  1.9955433291064287e-59  1.7730298808350530e-57  4.4546247108505402e-59  2.3694156596829717e-59  6.0084970715521746e-47  6.5442896825268985e-53  5.6080975328825318e-52  4.2297821887512740e-51  4.4081949932060797e-16  2.3252355893126056e-29  1.4468515049850929e-13  4.0386397751334717e-17  5.8968552004329470e-63  5.0900835194682138e-44  7.3436553405930207e-23  2.9195405737923784e-32  -7.8017016559177524e-13  6.1367012353431089e-21  1.4877471004238417e-11  7.2612247877129892e-55  2.4247924559313283e-24  1.6140363344618156e-31  2.7395748599740866e-24  3.5715028899021584e-46  6.2686779693223538e-14  7.3044603566104567e-37  3.1240731173283537e-28  2.2032858688097892e-62  4.2155675120137276e-45  6.5831010088684956e-15  -7.4543026682752937e-15  5.2967737499777682e-47  6.6551662097761403e-17  1.2314478053537787e-20  1.8764821947938113e-17  2.3747856373538366e-18  3.3737442180713088e-19  8.4883878738866469e-14  1.9267510298800763e-18  4.2765535027114191e-19  1.4619040504923985e-29  -2.0098451072097818e-14  5.0046769705774881e-48  9.6329854040348423e-54  4.7681302179874903e-40  2.0214795628392277e-53  1.3152215613951022e-40  7.5319633044671411e-43  4.0758988841574141e-43  1.1057313696110702e-34  6.2278876863061835e-52  7.1444869940077701e-42  1.9731242738669590e-60  3.3771977922232107e-12  1.2948312455040483e-15  1.0224710154256148e-37  3.4072457836150817e-39  1.6085251115055207e-12  4.3965727997726455e-13  7.0739726111423497e-50  6.9717995231920942e-52  4.3029851681686052e-15  4.9008939883082702e-11  3.3810435841477827e-12  1.2679402586228189e-14  1.2836408059010188e-17  4.4318437405890011e-51  2.8640877595697253e-49  2.8466906097189446e-48  2.5203101947196038e-22  3.9703232590575517e-57  8.8755321960403614e-26  5.1846153300809560e-63  5.7784344524192548e-62  3.0778760208792709e-41  2.9858797678440210e-12  1.7013112142868447e-64  1.2933303618974726e-64  6.2930790385153395e-66  6.7465111809791600e-55  4.1225842686945661e-48  6.9145487042252500e-33  2.0165708205651730e-32  8.4890512937969239e-32  3.7424653776327560e-24  4.0132143066071511e-44  1.3996631942476976e-35  1.3399245278149626e-31  1.9426664868925985e-30  7.4163151742292010e-30  1.4092099612438534e-28  3.7406475479787437e-66  7.4367765824801669e-65  1.8368385751254111e-33  6.8607333576623802e-60  4.5395936816387550e-65  4.2819077959137751e-25  6.3729818928977443e-38  5.1161079407594677e-30  4.6047439670222394e-57  2.3513814738358646e-55  3.9854799096100765e-20  2.1131125014549905e-15  6.3792456799897829e-18  2.9845010693018626e-30  8.3998273545264214e-13  3.4528758525687710e-31  2.1074580648905502e-26  9.9792651619278750e-38  1.4402847099570600e-37  6.5001907952057988e-42  1.4447016963197240e-43  1.0879251051699266e-43  1.5607916406697404e-36  1.6409639736991500e-44  9.3112702734342223e-65  1.1152007895532422e-39  1.6736171953819763e-28  6.5392682219317338e-21  5.0664097139981338e-14  3.7342273750564016e-15  2.6407920430262773e-17  4.2477933352725864e-18  1.3869683492041168e-19  2.2492490166272802e-19  1.5550750087461735e-21  1.5394458142042845e-22  6.3759127494911079e-57  1.0605182234097958e-39  3.5315099737735024e-31  4.3318975424590128e-19  1.8948454224286620e-19  1.4407397071154790e-20  2.3899486466777549e-44  1.7020181342730754e-53  6.0370299564620196e-61  5.4050595886486945e-62  3.4152719254519992e-60  1.4022523224762155e-41  1.5282707904107984e-36  9.3278010882297611e-38  5.4363079673814275e-19  1.6834811513435502e-43  1.2865242900334042e-35  3.0688536469489225e-67  3.1611071689002160e-65  2.0421073746605070e-37  3.4987549076089797e-45  2.5094055517820988e-47  2.4586126031271477e-55  7.4349399205842866e-36  4.9110545890180536e-55  1.7315368009885264e-26  1.4514032965060744e-45  3.4481595679945635e-26  2.9390653898588179e-67  1.0088588737449719e-31  8.7784467887098292e-18  2.0860594876696333e-19  2.6624456553673728e-19  4.4857758338999769e-15  -7.5249786424332770e-18  -1.0946025962828610e-15  -7.0039784870865570e-16  2.2355541809965578e-24  4.2782124296154716e-28  -7.1926387557060604e-17  6.2328198619912137e-23  4.6898217120103038e-21  1.3510217924244876e-22  5.7813528770011102e-21  8.7724287697798592e-25  1.5106515201694654e-33  1.6965434307738115e-39  3.6622807548222061e-51  3.8995722050575842e-61  2.3985398597823691e-41  4.2051748680847361e-63  2.3091419397574014e-61  9.2383302241370119e-54  9.4798277250732643e-62  1.1485549042804953e-26  8.5506368121734357e-45  5.0310847029326482e-37  1.4142650726889209e-15  9.8639122395421961e-42  3.0004276821715552e-41  1.8287957472859904e-37  5.3452331228793837e-48  9.8108638322092008e-47  4.5979293736493312e-59  1.0245193270463359e-10  2.0956990711763859e-45  2.5519711426093474e-45  1.7896296571824906e-52  2.7525328103793954e-58  1.5867931745410472e-52  1.5537779671005919e-12  1.9701605258006914e-22  3.2778187914727304e-56  1.5361864898978382e-51  4.3192780715277533e-41  3.0537441152483197e-59  2.9026601720698506e-47  1.3734969731485499e-27  3.1982672633755671e-34  7.6386787786962738e-33  3.7822812793884424e-14  9.7419380578441696e-13  3.8603251675341781e-50  2.9959560248227446e-23  1.5446878556817194e-63  6.2307447359631736e-64  2.5839903702663551e-33  9.4504412551733584e-25  1.4326131248976550e-42  4.2770758714367683e-12  9.8074949690184788e-40  5.9291318426817606e-59  1.1464540723632583e-58  -1.7931733543271888e-14  4.5661182242480342e-64  -2.1940881013119049e-12  2.8340800360622403e-22  6.7252773065436498e-24  2.6591124550922221e-29  1.8678469297930090e-62  2.3600947137922643e-56  8.1960450613431795e-34  1.1001375251216433e-56  1.4031440440447964e-52  1.3842422724765676e-56  2.7413372927316783e-60  3.8087264237938796e-66  3.9044717718290462e-17  1.0995401717981160e-30  1.0941562624256396e-48  2.6384493151228882e-27  4.3414254245792846e-31  4.9987977703165453e-49  6.9402221783819109e-51  1.0111312675978091e-10  2.0770697402773273e-59  3.3034823973923314e-13  2.7545896015276668e-49  1.7308518977842916e-12  5.9647680456350684e-13  -1.9015639270595819e-14  3.8056220614831603e-21  2.8909756995183423e-50  1.3602900614440564e-35  1.7655450476520988e-47  5.4717656014485637e-14  4.1458153883601189e-42  5.6504407869542367e-31  3.9597472042529350e-25  9.1241383149253962e-21  1.9844475397263817e-58  6.0053319219956298e-24  7.7274932116935101e-60  1.2776244296592769e-38  4.2474093000496580e-29  3.7567226116490431e-49  1.2244823489311239e-55  3.0145413122666238e-34  3.1158442478073684e-38  9.7922488900721465e-11  6.7660165117648837e-54  8.5929132745502941e-23  1.5054980404130299e-39  1.2029644279014088e-38  5.0243271420242642e-37  3.2024852595331195e-51  4.6472299369343352e-46  2.4618394317872630e-55  1.4390643651852091e-56  7.5158628461136478e-64  3.4550573584042728e-47  1.8619241870519641e-61  -2.7182708924664834e-17  -2.7855496215083188e-17  9.4825562862364395e-48  1.9529862330984345e-58  5.6507655229903145e-41  -1.7526703562291687e-12  3.6677728325026230e-18  1.6726993616021896e-48  -2.9643508413749094e-14  5.8840454753798766e-15  8.4923267229988469e-18  8.6722280028096414e-61  2.6660890688338249e-16  5.1315117625385106e-43  3.1117412500990096e-14  8.7232925881213074e-40  1.6564289581067248e-57  3.9353774599553067e-31  -1.1297831621336411e-14  5.4676769421595662e-14  1.0358045193069839e-16  1.9634913482439875e-64  1.1358842243024459e-25  1.4238134260140659e-56  1.4636942509155981e-38  2.2688655641140954e-50  8.2729013334186664e-58  7.0033885754306914e-67  3.9504686032663626e-35  7.0224832006068345e-21  6.4392978457015344e-35  9.2711158759401575e-36  1.0901373133380520e-27  5.8396868414124534e-51  2.7987982960492291e-22  2.2844828576929264e-66  9.2861236804297460e-33  3.8265568382592956e-63  8.0350710375449121e-33  -3.6147424233493040e-13  1.5096716008418149e-12  3.4699100713599716e-58  2.3078839238601649e-29  2.2302962318736196e-43  3.7147065505372397e-45  5.6362801301993201e-46  2.4370801898098886e-46  1.3098858403736794e-45  8.2370893390355141e-58  4.1965130813906613e-28  5.2567177243677623e-25  7.8180020943326198e-33  1.4453900148761186e-25  8.5904961783846396e-28  3.5513599383895659e-43  2.5604673453149022e-44  1.1775045431005264e-26  7.5676226922140904e-36  1.4102337782043713e-57  2.2047115346328072e-30  4.8756559877313600e-22  4.0098644667748769e-21  7.2885677608328220e-25  4.8433745859932006e-67  3.6045178190389007e-12  1.4651825583282962e-39  3.0007207309890829e-40  1.1907557226992863e-28  2.7858002517401277e-41  1.5854432929513973e-26  1.3262284309960568e-53  5.8410573083756894e-28  6.0749837850000332e-36  5.5831319598997724e-22  2.4908027187284619e-14  2.4610150866655913e-62  2.4433523325310925e-34  4.5794187313581343e-27  3.9773328593447377e-20  5.1924082929436337e-46  5.7319087139218962e-51  5.6825486276685924e-18  1.9841690230013992e-25  1.3178207770348218e-25  5.2250468321799409e-19  2.5003663462021830e-11  1.6243935335122369e-55  1.8036545923303931e-65  5.1393024494020597e-65  2.4116959715299768e-66  3.5274851464242257e-21  1.6921578203013302e-57  4.3348081974322115e-61  1.5561330029215274e-33  1.1240007151227955e-41  3.8926960281982063e-54  2.8750073582470091e-55  2.2523348610285295e-49  8.6298634339031906e-24  2.3350242394477176e-37  6.7448270141635179e-37  6.0459348735800965e-14  8.0494484749925579e-42  4.4737313592699577e-39  4.0249790764886791e-34  1.3522396808928580e-34  6.4448975122617674e-27  1.2691698405932048e-19  4.1486882745172660e-19  1.0879784645893233e-40  9.7411411938193462e-13  3.7215840348857860e-14  3.9669425161738667e-14  -1.0671700059423804e-14  2.4798390051624520e-16  3.7223951906123627e-36  3.2495402834715738e-16  9.1557227231494113e-25  6.4258216396625789e-67  -7.3838913196525127e-12  7.6968855914443355e-14  3.3678627167933651e-49  2.3481789967664288e-50  6.1105090568860953e-11  5.7603264066086843e-59  -2.0670917347811876e-14  1.5773327012589422e-15  -1.3265682562510021e-15  -4.7763786829131285e-13  -2.7949169405238234e-11  -5.3007112526436570e-12  1.7051500677793786e-59  8.1584247283033968e-64  1.3514425757928137e-20  2.0989610286387816e-47  1.1977107036474191e-48  8.3667575126224548e-49  1.3901749022197820e-42  4.1998112977280384e-38  6.5533419550920314e-50  9.6619965374857769e-56  1.0759544405773449e-21  2.1167418320909045e-55  2.8969953520766922e-59  6.8319885880127502e-60  2.5652293569103736e-16  7.8266149649066500e-16  7.6538320769436782e-54  3.6323759494676450e-26  3.5289317903925283e-54  1.0841915907317155e-38  8.3672748771470303e-45  1.6456959222364315e-29  1.1224974352867930e-20  1.3013477827400880e-57  3.2587955785939769e-16  4.9041589762016002e-40  5.3991963588680017e-19  6.5457721705899886