<?xml version="1.0"?>
<VTKFile type="UnstructuredGrid"  version="0.1"  >
<UnstructuredGrid>
<Piece  NumberOfPoints="2446" NumberOfCells="4585">
<Points>
<DataArray  type="Float64"  NumberOfComponents="3"  format="ascii">0 0.41 0  0 0 0  2.2 0 0  2.2 0.41 0  0.2404508497187474 0.2293892626146237 0  0.25 0.2 0  0.2404508497187474 0.1706107373853764 0  0.2154508497187474 0.1524471741852423 0  0.1845491502812526 0.1524471741852423 0  0.1595491502812526 0.1706107373853764 0  0.15 0.2 0  0.1595491502812526 0.2293892626146237 0  0.1845491502812527 0.2475528258147577 0  0.2154508497187474 0.2475528258147577 0  1.1 0 0  1.1 0.41 0  0 0.205 0  0.55 0 0  0.55 0.41 0  0.275 0 0  0.275 0.41 0  1.65 0.41 0  1.65 0 0  0.8250000000000001 0.41 0  0.8250000000000001 0 0  1.375 0 0  1.375 0.41 0  1.925 0 0  1.925 0.41 0  1.5125 0.205 0  1.7875 0.205 0  0.6875 0.205 0  0.9625000000000001 0.205 0  1.2375 0.205 0  2.2 0.205 0  0.4687002074688797 0.2068568464730291 0  1.99375 0.2152743902439024 0  2.0625 0 0  2.0625 0.41 0  2.2 0.3075 0  0.4125 0 0  0.4125 0.41 0  1.7875 0.41 0  1.375 0.1486128048780488 0  1.5125 0 0  1.7875 0 0  1.5125 0.41 0  0.8250000000000001 0.2613871951219511 0  0.9625000000000001 0.41 0  0.9625000000000001 0 0  0.6875 0.41 0  0.6875 0 0  0.1375 0 0  0.1375 0.41 0  1.2375 0 0  1.1 0.1486128048780487 0  1.2375 0.41 0  1.65 0.1486128048780487 0  1.126715909090909 0.2793064024390244 0  1.676715909090909 0.2793064024390244 0  0.8517159090909092 0.1306935975609756 0  1.348284090909091 0.2793064024390244 0  0.34375 0.3032389320646208 0  1.894702181800738 0.1282910975492754 0  2.092797818199262 0.1282910975492754 0  1.85625 0.3075 0  0.61875 0.3075 0  0.61875 0.1025 0  0.3648540804333487 0.1240075933101478 0  0 0.3075 0  0 0.1025 0  2.099172119769978 0.25625 0  0.48125 0.09238439620688085 0  0.5781001037344399 0.2059284232365146 0  0.48125 0.3196743479159776 0  0.7265881057911006 0.3055240343720796 0  1.99375 0.08395950269330846 0  1.459960956013612 0.3075 0  1.569025960719943 0.2986889805672169 0  0.75625 0.08213100772579164 0  1.03125 0.3278689922742084 0  0.923871252904788 0.3078247185783941 0  1.959375 0.3126371951219512 0  1.749222215368287 0.1025 0  1.275777784631713 0.1025 0  2.2 0.1025 0  1.225938124459196 0.3075 0  1.550777784631713 0.1025 0  1.000777784631713 0.1025 0  1.44375 0.07430640243902442 0  1.16875 0.07430640243902437 0  1.899250267340833 0.2229966846119207 0  0.1020898364287272 0.3140258291809757 0  1.766482954545455 0.2934032012195123 0  0.3405058858996321 0.2119987970531874 0  0.7710785630958338 0.1710968191298857 0  1.046078563095834 0.2389031808701144 0  0.2 0.3400647632937836 0  1.421109702350723 0.2261157654379721 0  0.2800464974185557 0.08982544815605742 0  0.098916018031319 0.09171660955420841 0  2.13125 0 0  2.118919042110979 0.3422084711244843 0  1.30625 0.41 0  0.89375 0 0  1.597888256393107 0.2173787389261347 0  0.20625 0 0  1.829299675393195 0.07400700849299596 0  1.71875 0.41 0  1.16875 0.41 0  2.038220665644273 0.332420740103091 0  0.34375 0 0  0.417496017710808 0.2696595573092803 0  0.2 0.07687845740457822 0  0.9295982307099278 0.1343158415898188 0  0.07390688010811153 0.1697064032433452 0  0.5238366813727013 0.2578302467013575 0  0.05452951551825875 0.25625 0  0.5229630068078351 0.1548816096928243 0  1.452769549894695 0.1548122580621249 0  1.369219062229598 0.07430640243902442 0  1.30625 0 0  0.8504409521244898 0.3356935975609756 0  0.8821881244591965 0.205 0  1.720943423819132 0.1714577452753128 0  1.157188124459196 0.205 0  1.094219062229598 0.07430640243902437 0  1.03125 0 0  1.304056576180868 0.1714577452753128 0  1.67579304192913 0.07430640243902437 0  0.2751941921308361 0.3346083473122598 0  1.209670467133757 0.1362100266964769 0  1.025335513626278 0.1700681449722324 0  0.7562500000000001 0.41 0  1.58125 0 0  0.7567170593862014 0.2409196493502535 0  0.6926714215682891 0.1272249611432207 0  0.4139715849905988 0.3397932387114203 0  0.9840787304190477 0.2717749043358119 0  0.06875000000000001 0.41 0  0 0.35875 0  0.9281250000000001 0.06276726142697993 0  0.5507396469029935 0.3219409231578227 0  0.5504468037989405 0.09136885600634273 0  1.58125 0.41 0  1.631724228912893 0.3381867502687533 0  1.825608881788174 0.14499488549201 0  1.85625 0 0  1.44375 0 0  1.44375 0.41 0  1.85625 0.41 0  2.13125 0.41 0  0.7562500000000001 0 0  0.89375 0.41 0  0.4812500000000001 0 0  0.34375 0.41 0  0.4812500000000001 0.41 0  0.20625 0.41 0  0.06875000000000001 0 0  1.16875 0 0  0.61875 0 0  0.61875 0.41 0  1.03125 0.41 0  1.71875 0 0  1.99375 0 0  1.99375 0.41 0  1.340625 0.3489494290853124 0  1.134375 0.3489494290853123 0  1.700180620188976 0.3438659752031281 0  2.135782184673599 0.07126652247502523 0  1.668441847249787 0.2129203728327609 0  1.295782514339747 0.2378437748815763 0  0.8233075729931248 0.06842334294821524 0  1.409375 0.3520314716057996 0  0.403505597322782 0.182067236678212 0  0.378125 0.05794951541303489 0  0.3043468223249023 0.1518321115979534 0  2.129248544730567 0.1906135162504124 0  2.060771381434487 0.1989445750470348 0  2.013252586573865 0.1496169464686054 0  1.942766402200229 0.1734448904596831 0  1.895522487186454 0.06076163953489683 0  2.069553871656643 0.06605731020975725 0  1.274680914880868 0.3520219391081363 0  1.614713220494657 0.09473434380863296 0  0.7899021319497519 0.3149123934144827 0  0.69518737419149 0.0634051089053758 0  0.2971740475496061 0.2592172353407536 0  1.72990325744076 0.2380068107952482 0  1.356580098625191 0.2120393231351682 0  2.034370752044885 0.2668681600792073 0  1.51768709249349 0.3426260931494756 0  1.561883724969884 0.1650446847858835 0  1.197344062229598 0.2523725417393646 0  1.804085235518364 0.3468178408964637 0  1.817887819205233 0.2589243285818559 0  1.905897727272727 0.3485060975609756 0  0.6719798073392919 0.2688965171178177 0  0 0.05125 0  0.653125 0.35875 0  0.6396896119294488 0.1627615407790282 0  0.4274150154087412 0.1242548552168279 0  1.192836486056382 0.3562350748565544 0  0.8279124365364005 0.183856489168822 0  1.097485222388854 0.2083571153401724 0  1.28257088594801 0.2944411014911587 0  1.474860187679412 0.2504218616229368 0  1.406767003493824 0.2829282258560709 0  0.446875 0.04619219810344041 0  0.515625 0.04585361801037557 0  0.592043440706648 0.05125 0  1.845656689180403 0.1998310418452388 0  2.144958525570388 0.2909790873294231 0  0.6171090763650112 0.2492366900333857 0  2.2 0.15375 0  0.5145586920831158 0.3648371739579888 0  1.57794966442982 0.3540357145964566 0  0.721875 0.3633107922168974 0  0.0496154796471391 0.333125 0  0.5843750000000001 0.3662560860076676 0  0.5810878747760798 0.1474002776121195 0  1.508991196088596 0.1421783375065625 0  0.8840670607017558 0.2640994375393898 0  0.09776612425612034 0.2204896805326566 0  1.50436820029908 0.06143401634903343 0  1.223857000523521 0.0823554862453532 0  1.153316824384777 0.1289850171317837 0  2.148922302309752 0.1258841779285271 0  0.309375 0.04312325590431198 0  1.621993280276081 0.2841214267927899 0  1.550118654119087 0.2461998729100966 0  1.327182649291491 0.1216967252533594 0  1.051977450479407 0.1221382572915816 0  1.753125 0.04556020050186112 0  1.271875 0.04556020050186116 0  0.9816084133102366 0.05126138213476004 0  1.039051841454368 0.0572224914831029 0  0.9719230514536006 0.3480477870845102 0  1.94956388244759 0.1180512551534177 0  1.949997712993411 0.04965831614304109 0  1.771961817615021 0.1530278789497521 0  1.909246823951428 0.2812757146784527 0  0.2459536687882397 0.04668633953831142 0  1.948575539857022 0.2445328248721197 0  1.697271520964565 0.1233917627620729 0  0.7964897648514618 0.1211426571931604 0  1.065625 0.3689344961371042 0  1.085849084308977 0.3170853572226867 0  0.4702981435440001 0.260434880697798 0  1.577403511714593 0.05463601888079143 0  0.05622663515370135 0.05493816910862376 0  0.3267207591099919 0.3566194660323104 0  0.9003051618565143 0.3564049499960621 0  1.751571320346033 0.3651102912045228 0  0.1583785085108421 0.2994699345738728 0  0.1455283439499995 0.3542795598723423 0  2.2 0.35875 0  0.2347662494194072 0.298325008655211 0  0.1527284455616188 0.1065771775690181 0  0.1382139529076665 0.05427454456341477 0  0.8749341636311069 0.05110114999892954 0  0.643661668713109 0.05693499781019222 0  1.466879772203159 0.3611261772912453 0  1.990280163552011 0.3564754268533217 0  1.17471064520912 0.2990917256188288 0  0.5202693090594349 0.206382495511728 0  0 0.25625 0  2.2 0.25625 0  2.2 0.05125 0  0 0.15375 0  1.853978576207987 0.35875 0  0.9787513713939683 0.1487523696999336 0  0.240625 0.3722153812029779 0  1.515638456102889 0.2882700110184686 0  0.09048297387599738 0.3637717362208066 0  2.150453692751374 0.2387066338105111 0  1.323782677156475 0.04897634338873398 0  0.8074131292871642 0.3624701995505916 0  1.409375 0.03715320121951221 0  1.406484531114799 0.1087852750766809 0  1.134375 0.03715320121951218 0  1.627401732573545 0.04552157221025036 0  0.1170173172005315 0.1427610859166811 0  2.045405893604797 0.1105340662939892 0  1.255408269734577 0.1577307500159216 0  2.028125 0.03707597992059326 0  0.4743610090857199 0.1421513964721819 0  0.9354010469015898 0.250631300585664 0  0.04420832937638274 0.128125 0  0.8922386349349938 0.0992956419364831 0  0.1197849154434487 0.2663398672460083 0  1.248258025468107 0.2565907092181813 0  0.3746885856929528 0.370723531618974 0  1.203125 0.0366132337404304 0  0.5724622277005015 0.2751253816079333 0  0.3365425205162783 0.08395777655057959 0  2.072662025974815 0.2975086504196739 0  0.4581080832182547 0.3648371739579888 0  0.3874522734668214 0.2295447548840689 0  0.7827853612484443 0.04106550386289586 0  1.887722846421017 0.1760882698830035 0  1.472640588990488 0.1118278026240017 0  1.865937103925594 0.2604137786483804 0  1.463913572748262 0.2030442564990043 0  1.376426316059077 0.3186741374914345 0  0.6641993820150034 0.3141688596240831 0  0.2943117490824315 0.2130987422685822 0  0.3478153998082709 0.1666571081082676 0  0.3427990510599805 0.2575950027870776 0  0.7997118993855807 0.2216171933356366 0  
[...]
<PointData  Scalars="f_10-2"> 
<DataArray  type="Float64"  Name="f_10-2"  format="ascii">3.6371682057373400e-08  6.7018605178407144e-08  5.2967097072518718e-07  4.9922609547959961e-07  1.1117422123560985e-06  1.5473756107231798e-06  1.0851031047074703e-06  4.1093355983962631e-07  1.8083066656145613e-07  1.1561623601411364e-07  9.5108256739634711e-08  1.1715211021620649e-07  1.8422882066701866e-07  4.0746508547700882e-07  1.6636645409940202e-06  1.3353772498252268e-06  5.8316150769046550e-08  5.2577234677660593e-07  4.0776881363941468e-07  4.2648968487293285e-07  3.1461888833660744e-07  1.9900942028742508e-06  2.2387339240942744e-06  7.7878314657476556e-07  1.0347721580275233e-06  2.1234386612790188e-06  1.8036660322003860e-06  1.5802507520626627e-06  1.4453283532191617e-06  3.3327527441615434e-06  3.0032495400672286e-06  2.8574954941871389e-06  3.2452706844444281e-06  3.3648859974297211e-06  1.0949681112261603e-06  2.1000710814595002e-06  2.1950900645330729e-06  9.9810192044280468e-07  9.2220014285484738e-07  8.4889287386416601e-07  4.6880158474241394e-07  3.6937411754719957e-07  1.8307846366486840e-06  3.1862653449168026e-06  2.2484810283484862e-06  2.0246928619228586e-06  1.9542103692005843e-06  2.4810058302988915e-06  1.0568379800133445e-06  1.3597190374843101e-06  5.4264666927908623e-07  7.2686375710033943e-07  2.4332572159509357e-07  1.4283951677512405e-07  1.9257994078836717e-06  3.0790391898292451e-06  1.5918323023453925e-06  3.1044774805945194e-06  2.6222906920777457e-06  2.8005984143118241e-06  2.5268416415385616e-06  2.7964812756723868e-06  5.3444110495908074e-07  2.4477794089925227e-06  1.4917848893705093e-06  2.2672683924996131e-06  1.1079559264089736e-06  1.3752791877358679e-06  7.0283546449046879e-07  4.2459728010139153e-08  5.9140505842936025e-08  1.5095462440218026e-06  7.7879408771218382e-07  2.5354455495169237e-06  6.2252626565719365e-07  1.4444411313971745e-06  1.7527989992382571e-06  2.5356640719691102e-06  2.6626233503230443e-06  1.4596924271973849e-06  1.7469716448610630e-06  1.8566589222072237e-06  1.8814619119090767e-06  2.6648705238963705e-06  2.6743661818550270e-06  8.9127225628063132e-07  2.3264484720189921e-06  2.8085154101621052e-06  2.3315207957761818e-06  2.5211613648213790e-06  2.2119991968732162e-06  2.6137482168356891e-06  1.5586378029454858e-07  2.5751942802983461e-06  1.4966496859966172e-06  2.9135910341724477e-06  3.0817865820765206e-06  3.7991182687102327e-07  3.2899060467913500e-06  4.7258303657102129e-07  1.8371661729300647e-07  7.1192323410242345e-07  1.0049011750962509e-06  1.7054485347773936e-06  1.1973199551296632e-06  3.2566275065895247e-06  3.6171289514911136e-07  2.2902033250019060e-06  1.9417925928201270e-06  1.4674761262691415e-06  1.4162629860988296e-06  4.5678076084320880e-07  9.4053020707854359e-07  4.1763377067432439e-07  2.7155497486270023e-06  6.2288778983224819e-08  1.6284864232632103e-06  5.3934889601890310e-08  1.9164819662840468e-06  3.2301073154530387e-06  2.4595047207776013e-06  2.0269167009795975e-06  1.2740137513512868e-06  3.1806129119000619e-06  3.1077289126404058e-06  3.3492969175735298e-06  2.0940923355013578e-06  1.5212523171101495e-06  3.3212076186828754e-06  2.5429910945878956e-06  4.3575355878298504e-07  3.0152744278908218e-06  3.2152998397758520e-06  6.4785113167941068e-07  2.2669488039234946e-06  2.6735047422117539e-06  2.0730614434848566e-06  4.6199753970958518e-07  2.5702651047264161e-06  5.7787273230091707e-08  3.6351586167284852e-08  1.6204857553551451e-06  7.4666943650735756e-07  9.7610431836286516e-07  1.9903309110694785e-06  2.3055377948651093e-06  2.7671220624338765e-06  1.8273151520347633e-06  2.1938133258096089e-06  1.8912397997219571e-06  1.6723779328406138e-06  6.6663995603916891e-07  8.7156690359888951e-07  9.1001554833544764e-07  4.8298907375751960e-07  3.5206662681898646e-07  3.8095154164639764e-07  2.4241799008643112e-07  1.1052020775110356e-07  1.8048143345795524e-06  6.0877044981929776e-07  4.6207231448027444e-07  1.1930620317051711e-06  2.1588288212236385e-06  1.2832833514315789e-06  1.1970892047619533e-06  1.9932794393257249e-06  1.6796041544678640e-06  2.2373391238845606e-06  1.0037487921291077e-06  3.1999075403921655e-06  3.2050309714120333e-06  1.4368841544316070e-06  2.0578811254506985e-06  1.7013350482343416e-06  5.0097281083566745e-07  8.2967881567463886e-07  1.4363004314975633e-06  1.8378263573352203e-06  2.0082333371330382e-06  2.4311463283278791e-06  1.9969376610309853e-06  1.2859553811807559e-06  1.8790379219768032e-06  2.7330595228058096e-06  1.4440814199802771e-06  1.0469761522438705e-06  7.1418818519541918e-07  3.0204024034808837e-06  3.3526704377765601e-06  1.8134759444748961e-06  2.2300863609722148e-06  3.2489473703675179e-06  3.0302415601961536e-06  2.0876391427487691e-06  2.7211294323593623e-06  1.8193420149156723e-06  1.9635021032918249e-06  6.1522485493561558e-08  6.3112656870878754e-07  2.4955522337708975e-06  9.2861121319414197e-07  1.7110834739244317e-06  3.0985187347909958e-06  3.3298345141216762e-06  2.5601512630739379e-06  3.1197268085446941e-06  2.7840534233565609e-06  5.0863480092196616e-07  5.6699136850887861e-07  7.0280787414327768e-07  2.8417132638594434e-06  1.1323488404661181e-06  2.1504522747357573e-06  1.0437038727062861e-06  4.4370148341157931e-07  2.1777669297012839e-06  7.2092156062818591e-07  4.5637583373405036e-08  5.0056323691424942e-07  2.0399915857414971e-06  3.1379274146963384e-06  2.5401863103597285e-06  6.6034965264644619e-08  2.4600257264961090e-06  2.3817338088298931e-06  2.8923274651095161e-06  1.1817540252987202e-06  4.6211198264091811e-07  2.7935494891052327e-06  3.1373439717405545e-06  2.9242869658976514e-06  2.7016956673922440e-06  2.2653009827270979e-06  2.1059918065813182e-06  1.6123302576084981e-06  1.7963834925917359e-06  1.3794542363738411e-06  2.1642536586373051e-06  1.7165391212369536e-06  2.9414739253718795e-06  2.2909463364121594e-06  4.3479286987658034e-07  2.3327387633079264e-06  2.8903414066759079e-06  2.2425023702725308e-06  1.3802087729707429e-06  1.9985739214350666e-06  1.3298302605004764e-06  2.4408894953405461e-06  8.2200746788965677e-08  4.0117670524627028e-07  1.1393027894156836e-06  2.0499703235450910e-06  3.1808813107727774e-07  2.3575367825576322e-07  6.4226758578870681e-07  4.0165489407103511e-07  3.0460834214227146e-07  2.9902106221766648e-07  1.3604651939190771e-06  8.5104142152816093e-07  2.0531950695187347e-06  1.4618034609116264e-06  2.3848252069743003e-06  2.3270980286831979e-06  5.2075225948766022e-08  1.0192697618275292e-06  6.8283799486705291e-07  6.0465195735903242e-08  1.8983210735415058e-06  2.9718578516610389e-06  3.2441407929100924e-07  2.7611731322082476e-06  8.3815680454077215e-08  1.2740706100003224e-06  2.2002503925592738e-06  8.9421268150509749e-07  2.2402393029427094e-06  2.8303517068005545e-06  1.8204309097631106e-06  2.3839545204955720e-06  1.4313985484956531e-07  1.6594110123023889e-06  3.2318889401651075e-06  1.3015077121596401e-06  1.4442974316110464e-06  2.8245725934368424e-06  6.4192578637450185e-08  2.0755234743028385e-06  1.6777312801786842e-07  3.0071997431464742e-06  3.8784843283645430e-07  1.9468323033895878e-06  1.5000647698341219e-06  5.1780555461742452e-07  1.4620807771939885e-06  4.1776292355216904e-07  1.4536441435265219e-06  1.0530258751271507e-06  2.6716035446906644e-06  2.8816813875391469e-06  2.5720083801537327e-06  3.3554610297640380e-06  2.3448005206211896e-06  1.1319648514611694e-06  1.4505676785677799e-06  1.1695392465462245e-06  7.9961195336122365e-07  2.9760879097756681e-06  2.7261696443863493e-06  2.8880417894505597e-06  9.6290575634957393e-07  2.7855986272385129e-06  2.1704349700054176e-06  3.1425961838253083e-06  2.4696375207810044e-06  2.9537036141969152e-06  3.3732155437530296e-06  5.3616812611499832e-07  1.0596646482754268e-06  3.0927941128220646e-06  2.7215878052730788e-06  2.5122714521619839e-06  2.4111333817303486e-06  5.7960733973387456e-08  2.0681707537497525e-06  8.6775355083939190e-07  7.9121669948553279e-07  1.0716729030419829e-06  1.6107784685692275e-07  9.4012191910730277e-07  1.9953700688240435e-06  2.6536868397272001e-06  1.7565330569878902e-06  3.0937623158600140e-07  3.1454901239187687e-06  3.3476900998993918e-06  2.2240334359856089e-06  3.2602354722925369e-06  1.9780442146046626e-06  8.4124558379305075e-07  2.2047556777221050e-06  2.3172774743018017e-06  1.1277276944766668e-06  1.2758458897960382e-06  7.2453206727401894e-07  6.7983354191175680e-07  4.0515095152668348e-08  1.3915628478152270e-06  7.7472301978711610e-07  3.1900834814242054e-06  2.9970838873499340e-06  3.1179259389023464e-06  2.1666920255462318e-06  2.3202136355055536e-06  2.2608525658906268e-06  1.5456787965317603e-06  1.8278384813825527e-06  3.5252856288382538e-07  1.7524046716098974e-06  1.6979818383670961e-06  2.3738318441771035e-06  2.1003252669920208e-06  2.0368204565937530e-06  5.8131401109152662e-07  1.9621308591328583e-07  1.7835225291157515e-06  9.8733348786620203e-07  3.3125584122656805e-06  1.6961192019080793e-06  1.6132357689420478e-06  2.3064906458334170e-06  3.6603296052132733e-07  3.2819155418044622e-06  1.7963856641878318e-06  3.0314148368021422e-06  2.1906138846069383e-06  5.7607328981356516e-07  6.3811361445165832e-07  2.9787285100393886e-06  2.3948824364762815e-06  2.9197402953364194e-06  3.1579985391826393e-06  3.2629674733995471e-06  7.1770592148043760e-08  1.2255540228329898e-06  2.3754430709473177e-06  1.5194634504849859e-06  1.9653076485237559e-06  1.5644711799442579e-06  2.0022280936917894e-06  1.7127175845813704e-06  2.0303519749597291e-06  2.7887121962464305e-06  2.6023878481798978e-06  2.3212667561753890e-06  2.8183270482079746e-06  7.5950394705990118e-08  1.5845566389523315e-06  4.9990949003661743e-07  3.8438443563613105e-08  1.1815437271808391e-06  3.1790874839583231e-06  2.6556458058678976e-06  1.9117179137456697e-06  7.0616619019400162e-08  5.8548947446439162e-07  3.7020659022637829e-07  2.4272345725617572e-06  1.5716694711146034e-06  1.1088943322991888e-06  8.2075543276349914e-07  3.3176209835965350e-06  6.0105743949989567e-08  2.8708249694612183e-06  1.8687992016761463e-06  1.5135545139406227e-06  2.9063440410610266e-06  3.5012207398379104e-07  2.5334186085016219e-07  3.1149680077704996e-06  3.3637434912079954e-07  2.5546566687470769e-06  2.1283659408667442e-06  1.2378148381034158e-06  2.3442267961631878e-06  5.9929196741205125e-07  1.0309630674005908e-06  2.2059333563801825e-06  9.4871213073613990e-07  4.7031918101481390e-08  2.3185850170395051e-06  3.0947183068829454e-06  3.3738406901430514e-06  2.9236085609646464e-06  3.0536977594519811e-06  2.8408202851547853e-06  2.1789612841410614e-06  2.6016865581953162e-06  3.1148054255154826e-06  3.2428222914336582e-06  2.2087636419698219e-06  1.0204819491500749e-07  4.5029345047419791e-07  2.5973627708151554e-06  2.8796024497153107e-06  8.9408289641753843e-08  4.2065640309256634e-07  2.5001993169494929e-06  2.4541011866759350e-06  8.3199711890392843e-07  2.8822595988544847e-07  5.6229866314966471e-07  6.1119546611621118e-08  1.9343408084071171e-06  2.0751560820386918e-06  3.2760442092731845e-06  2.0270786985558951e-06  1.9996076335054677e-06  1.9319808106895729e-06  1.0333754410640722e-06  1.7673615160659468e-06  1.9853611577680688e-06  2.5202886572103340e-06  1.3004130940580742e-06  1.3126831731750720e-06  1.4880413886236458e-06  1.2427948331301119e-06  2.2707915776774516e-06  2.5161675827562938e-06  3.2965718734211988e-06  2.8536722681304673e-06  3.2615377047176250e-06  7.6190946793111865e-07  2.4836513925338746e-06  1.5840548558494392e-06  1.4078071426483791e-06  1.3085393219382392e-06  1.1146535252504704e-06  1.1550815759667042e-06  9.7158894220337055e-07  1.2406346386043602e-06  1.5395632865329892e-06  2.3863055486830589e-06  8.6959040361531525e-07  2.0385637399470198e-06  3.3208891224407510e-06  3.1768224020767467e-06  2.5810009780459785e-06  2.9384165510432784e-06  2.1735720243947203e-06  4.7960167106295557e-07  3.9175102511502280e-07  2.1399873635618376e-06  1.3982702103561801e-06  2.0800938667817913e-06  2.8187886192812623e-06  1.5285549680836572e-06  1.4030581569446742e-06  1.7918101855262914e-06  1.7506737117429600e-06  1.8952863549332272e-06  2.1410557483981043e-06  3.3592578157311797e-06  1.4016084857354540e-06  1.5275298861394013e-06  7.1290457907340046e-07  4.9904020320059301e-07  1.6871397818838752e-06  1.0767414055344087e-06  4.8613102032070655e-07  4.6332856464848301e-07  6.1343116555036590e-07  1.0695579043552122e-06  7.5751245410194393e-07  6.9196948233652804e-07  2.7629416781740649e-06  1.9955476389870500e-06  3.0110052526295704e-06  7.8096555922548019e-07  1.5575072724554132e-06  1.3685260568090471e-06  2.3907655115933444e-06  1.9678960945816133e-06  2.1940833498691417e-06  2.0054268946102871e-06  2.1093117052609495e-06  1.6458759111992191e-06  1.4217257476252471e-06  1.8714830820790115e-06  5.0824404999887184e-07  2.0790877214008990e-06  1.5969487543216283e-06  5.9127639255558445e-07  8.4377165529459717e-07  1.7371248109546337e-06  2.1647495609011719e-06  1.9260296555094064e-06  1.8959069175622269e-06  1.2657226072564108e-06  2.1065455974845060e-06  5.9413037060531781e-07  1.8476255827732565e-06  7.9815215290299759e-07  5.5934121007491411e-07  1.2841512672040965e-06  3.6230957224528656e-07  4.7316398986320900e-07  3.7410932302182310e-07  1.7148976104805519e-07  2.8340731245765874e-07  3.9866091042642891e-07  9.2568102755448527e-08  6.6174326420998230e-07  9.5114014267302148e-07  4.4505226951282260e-07  4.2909710821321872e-07  3.9064171832335329e-07  5.6054233992107869e-07  4.9776242633817260e-07  4.9405051794837083e-07  1.4475048961179681e-06  1.8633725663096060e-06  2.2567607824794812e-06  1.4326295239469380e-06  1.9780489978725554e-06  1.1375455554056895e-06  1.3176445374267917e-06  2.0369285556425438e-06  1.8578123116157353e-06  1.4394620058264571e-06  2.9709481842082398e-06  3.2126734791597887e-06  5.8266989097467614e-07  3.1666553186734497e-06  2.8525771077543897e-06  1.9219991062910663e-06  2.4962754532757981e-06  2.4609274551660729e-06  1.7553276094106065e-06  1.9986704816493435e-07  2.2151973673837608e-06  1.9127330919949234e-06  2.9544177270226561e-06  2.1105876793624649e-06  3.1608092292072569e-06  4.4586644663989510e-07  2.5450728042659853e-06  2.5414893268494921e-06  3.0551946144758662e-06  3.3658318277365561e-06  2.0254418594961521e-06  1.9855140652028495e-06  1.5585510163934288e-06  2.4817079905365630e-06  1.1439568826792561e-06  5.5733574924186708e-08  4.5749805862859809e-07  2.3156337529830295e-06  5.1044066097185090e-07  1.1324602538637634e-06  1.3611942684830300e-06  2.2294295238261695e-06  5.8714947371756010e-07  3.3499016923193616e-06  8.4808663456741007e-08  2.0023636822319628e-06  2.5406524436461240e-06  2.5034589570235474e-06  1.3031926656040523e-07  1.2173783835947067e-06  3.8332426696111022e-07  1.5241090103932850e-06  1.8775770294850723e-06  2.9471611902738165e-06  1.6112574814018182e-06  1.8845890274511476e-06  3.3013111858301307e-06  2.1330957357298958e-06  2.5605770307399637e-06  2.7747134502664653e-06  1.8743302227551266e-06  1.1046243068585791e-06  7.2131675205694018e-07  3.1776671391442010e-06  3.0427073394709949e-06  2.1102771353344456e-06  1.4464630404059763e-06  2.6869472540960338e-06  2.5791051285772190e-06  1.8114777353705838e-07  1.6066880146819555e-06  1.0535153044425457e-06  2.0283746143805723e-06  1.1353958987934066e-06  5.4504862669771551e-07  2.9889585576505901e-07  1.9952523383297274e-06  2.0489948039425961e-06  2.8020653793328794e-06  3.3138765192454043e-06  4.6189707096822503e-07  2.6228081913392637e-06  2.5587233740278534e-06  8.0440888256050416e-07  2.5665243436556363e-06  1.7014050143620756e-06  1.3078712353917429e-06  1.7708839118724135e-06  3.3232951263187460e-06  2.6233881472210934e-06  2.3042081815681421e-06  2.8931054307069535e-06  2.0881817281870702e-06  2.1153789259728015e-06  1.0121046622650410e-07  2.8344556141888192e-06  6.6384338942356248e-07  3.2736373619130632e-06  2.7671590002796292e-06  3.2041777440883048e-06  3.2095723582572469e-06  2.5146483335423818e-06  2.6462555338402075e-06  2.5020351774055094e-06  1.6465336535212222e-06  2.2822635943758815e-06  1.3603182171255398e-06  6.5044419077522078e-08  6.9194907044171311e-08  3.1290544183183229e-06  2.1974636987213480e-06  2.1791977828508357e-06  1.2880395426929023e-07  5.0491948927594724e-07  2.2405277362225873e-06  3.8888471830276000e-07  3.0428720500878316e-07  8.4975751747216364e-07  2.0312274980547223e-06  1.4272564909916947e-06  1.8055510521660058e-06  4.4836957982527245e-07  2.3453432920578851e-06  1.7826339014105333e-06  9.7905880866950304e-07  5.4753538326151433e-08  5.9197228806290306e-07  4.6914219586952538e-07  1.1506790759790861e-06  1.5080796389804693e-06  2.0985023448475081e-06  3.1790632239929139e-06  2.9776683154049612e-06  2.3511019969104929e-06  1.0707512769640874e-06  2.5489296015955120e-06  9.1431897642527469e-07  3.3102724187214421e-06  3.3475047580890967e-06  2.9647202296859139e-06  2.9073318552441616e-06  2.7892529964382086e-06  8.3976634033399766e-07  2.8907687792599543e-06  1.6491588165583494e-06  1.8857165025214474e-06  1.6522041857610882e-07  2.5955914461965256e-07  2.5067156319449785e-06  2.0916216699210185e-06  3.3261990719165664e-06  3.2585203006361003e-06  2.8356029837414015e-06  3.2639345459799812e-06  2.2393522112660548e-06  2.0289971449257047e-06  1.0398521362295328e-06  1.1757032180155105e-06  1.5161593416047739e-06  3.0349572731285699e-06  3.1398357316784544e-06  2.8478904924168449e-06  3.0729684430490128e-06  1.0481647781247181e-06  1.8212778798067673e-06  2.7360500035756935e-06  2.3509110512141576e-06  2.1534215145596939e-06  1.5498590782275217e-06  9.9283482640392774e-07  9.7480297309491201e-07  3.7488367673621359e-07  2.6124788680899324e-06  2.9437624681414095e-06  9.5784317609860023e-07  1.7028416527803265e-06  6.4480602038787447e-07  2.4116262446834749e-06  2.4899293406833699e-06  1.9088684548846211e-06  9.2735742528227462e-07  1.3783068227405753e-06  1.2365721689347112e-06  1.5878003837215913e-06  2.9057864823109975e-06  6.8145100277787915e-07  3.1766979239030042e-06  2.5575130176254967e-06  5.9892157096977215e-07  2.4782173919637616e-06  1.9600213559650174e-06  6.0872147200637451e-07  3.0352784278328517e-07  1.9154100393856524e-06  1.0446674694495735e-06  1.3176382671872907e-06  9.4842122056515647e-07  4.0984123177627736e-07  2.6855519364898081e-06  1.6777351988746691e-06  3.0802397703389108e-06  2.0678518439046922e-06  2.1840862424623739e-06  2.1240102854628978e-06  2.9011335810461483e-06  2.9354897663031967e-06  2.9565865431882723e-06  2.5592041910024332e-06  4.8685937184802096e-07  3.3785836248463943e-06  1.8917097035099947e-06  2.0258712361200765e-06  1.6611738144876584e-06  1.9879284074793121e-06  4.0444003582090644e-07  4.7274026147518096e-07  2.3414088058473453e-06  1.4118211197023914e-07  4.2425553791055801e-07  1.0336258158779599e-07  1.7865444328250322e-07  4.2915635125298525e-07  2.0347251205018499e-06  3.5458074614047279e-07  2.7001663198627487e-06  1.0805940268765258e-06  5.9183661602852271e-08  5.7262135873424396e-08  2.4005002051055593e-06  2.1895954529759151e-06  2.5745131493209244e-07  2.2545920723000691e-06  4.5497145972031310e-08  1.3665061600669491e-06  3.8532045186978852e-08  8.3435217341879993e-08  2.3352578757562529e-07  2.8204841528656018e-07  2.3446472187731250e-06  1.6393849592099785e-06  1.0232534274090330e-06  3.2551029540705886e-06  2.9321897072703675e-06  3.2017125309024663e-06  2.2846890852035001e-06  2.2632275827333964e-06  3.2073262922176873e-06  2.9331840038067220e-06  4.3066832780121857e-07  2.0405610596042342e-06  1.8686721159655023e-06  1.6276953273848818e-06  4.7214752151034885e-07  1.3493842086305019e-06  2.1800704240255617e-06  3.0496666340857601e-06  2.8295590655764805e-06  1.5373135807837079e-06  2.6286590060391089e-06  2.9707960670276923e-06  5.2362508241371819e-07  2.6240031158256426e-06  4.5453171472129509e-07  2.2886469683263619e-06  2.4342819651317490e-06  9.3478209935016130e-07  3.1166689397354891e-06  2.7096165483416