<?xml version="1.0"?>
<VTKFile type="UnstructuredGrid"  version="0.1"  >
<UnstructuredGrid>
<Piece  NumberOfPoints="2446" NumberOfCells="4585">
<Points>
<DataArray  type="Float64"  NumberOfComponents="3"  format="ascii">0 0.41 0  0 0 0  2.2 0 0  2.2 0.41 0  0.2404508497187474 0.2293892626146237 0  0.25 0.2 0  0.2404508497187474 0.1706107373853764 0  0.2154508497187474 0.1524471741852423 0  0.1845491502812526 0.1524471741852423 0  0.1595491502812526 0.1706107373853764 0  0.15 0.2 0  0.1595491502812526 0.2293892626146237 0  0.1845491502812527 0.2475528258147577 0  0.2154508497187474 0.2475528258147577 0  1.1 0 0  1.1 0.41 0  0 0.205 0  0.55 0 0  0.55 0.41 0  0.275 0 0  0.275 0.41 0  1.65 0.41 0  1.65 0 0  0.8250000000000001 0.41 0  0.8250000000000001 0 0  1.375 0 0  1.375 0.41 0  1.925 0 0  1.925 0.41 0  1.5125 0.205 0  1.7875 0.205 0  0.6875 0.205 0  0.9625000000000001 0.205 0  1.2375 0.205 0  2.2 0.205 0  0.4687002074688797 0.2068568464730291 0  1.99375 0.2152743902439024 0  2.0625 0 0  2.0625 0.41 0  2.2 0.3075 0  0.4125 0 0  0.4125 0.41 0  1.7875 0.41 0  1.375 0.1486128048780488 0  1.5125 0 0  1.7875 0 0  1.5125 0.41 0  0.8250000000000001 0.2613871951219511 0  0.9625000000000001 0.41 0  0.9625000000000001 0 0  0.6875 0.41 0  0.6875 0 0  0.1375 0 0  0.1375 0.41 0  1.2375 0 0  1.1 0.1486128048780487 0  1.2375 0.41 0  1.65 0.1486128048780487 0  1.126715909090909 0.2793064024390244 0  1.676715909090909 0.2793064024390244 0  0.8517159090909092 0.1306935975609756 0  1.348284090909091 0.2793064024390244 0  0.34375 0.3032389320646208 0  1.894702181800738 0.1282910975492754 0  2.092797818199262 0.1282910975492754 0  1.85625 0.3075 0  0.61875 0.3075 0  0.61875 0.1025 0  0.3648540804333487 0.1240075933101478 0  0 0.3075 0  0 0.1025 0  2.099172119769978 0.25625 0  0.48125 0.09238439620688085 0  0.5781001037344399 0.2059284232365146 0  0.48125 0.3196743479159776 0  0.7265881057911006 0.3055240343720796 0  1.99375 0.08395950269330846 0  1.459960956013612 0.3075 0  1.569025960719943 0.2986889805672169 0  0.75625 0.08213100772579164 0  1.03125 0.3278689922742084 0  0.923871252904788 0.3078247185783941 0  1.959375 0.3126371951219512 0  1.749222215368287 0.1025 0  1.275777784631713 0.1025 0  2.2 0.1025 0  1.225938124459196 0.3075 0  1.550777784631713 0.1025 0  1.000777784631713 0.1025 0  1.44375 0.07430640243902442 0  1.16875 0.07430640243902437 0  1.899250267340833 0.2229966846119207 0  0.1020898364287272 0.3140258291809757 0  1.766482954545455 0.2934032012195123 0  0.3405058858996321 0.2119987970531874 0  0.7710785630958338 0.1710968191298857 0  1.046078563095834 0.2389031808701144 0  0.2 0.3400647632937836 0  1.421109702350723 0.2261157654379721 0  0.2800464974185557 0.08982544815605742 0  0.098916018031319 0.09171660955420841 0  2.13125 0 0  2.118919042110979 0.3422084711244843 0  1.30625 0.41 0  0.89375 0 0  1.597888256393107 0.2173787389261347 0  0.20625 0 0  1.829299675393195 0.07400700849299596 0  1.71875 0.41 0  1.16875 0.41 0  2.038220665644273 0.332420740103091 0  0.34375 0 0  0.417496017710808 0.2696595573092803 0  0.2 0.07687845740457822 0  0.9295982307099278 0.1343158415898188 0  0.07390688010811153 0.1697064032433452 0  0.5238366813727013 0.2578302467013575 0  0.05452951551825875 0.25625 0  0.5229630068078351 0.1548816096928243 0  1.452769549894695 0.1548122580621249 0  1.369219062229598 0.07430640243902442 0  1.30625 0 0  0.8504409521244898 0.3356935975609756 0  0.8821881244591965 0.205 0  1.720943423819132 0.1714577452753128 0  1.157188124459196 0.205 0  1.094219062229598 0.07430640243902437 0  1.03125 0 0  1.304056576180868 0.1714577452753128 0  1.67579304192913 0.07430640243902437 0  0.2751941921308361 0.3346083473122598 0  1.209670467133757 0.1362100266964769 0  1.025335513626278 0.1700681449722324 0  0.7562500000000001 0.41 0  1.58125 0 0  0.7567170593862014 0.2409196493502535 0  0.6926714215682891 0.1272249611432207 0  0.4139715849905988 0.3397932387114203 0  0.9840787304190477 0.2717749043358119 0  0.06875000000000001 0.41 0  0 0.35875 0  0.9281250000000001 0.06276726142697993 0  0.5507396469029935 0.3219409231578227 0  0.5504468037989405 0.09136885600634273 0  1.58125 0.41 0  1.631724228912893 0.3381867502687533 0  1.825608881788174 0.14499488549201 0  1.85625 0 0  1.44375 0 0  1.44375 0.41 0  1.85625 0.41 0  2.13125 0.41 0  0.7562500000000001 0 0  0.89375 0.41 0  0.4812500000000001 0 0  0.34375 0.41 0  0.4812500000000001 0.41 0  0.20625 0.41 0  0.06875000000000001 0 0  1.16875 0 0  0.61875 0 0  0.61875 0.41 0  1.03125 0.41 0  1.71875 0 0  1.99375 0 0  1.99375 0.41 0  1.340625 0.3489494290853124 0  1.134375 0.3489494290853123 0  1.700180620188976 0.3438659752031281 0  2.135782184673599 0.07126652247502523 0  1.668441847249787 0.2129203728327609 0  1.295782514339747 0.2378437748815763 0  0.8233075729931248 0.06842334294821524 0  1.409375 0.3520314716057996 0  0.403505597322782 0.182067236678212 0  0.378125 0.05794951541303489 0  0.3043468223249023 0.1518321115979534 0  2.129248544730567 0.1906135162504124 0  2.060771381434487 0.1989445750470348 0  2.013252586573865 0.1496169464686054 0  1.942766402200229 0.1734448904596831 0  1.895522487186454 0.06076163953489683 0  2.069553871656643 0.06605731020975725 0  1.274680914880868 0.3520219391081363 0  1.614713220494657 0.09473434380863296 0  0.7899021319497519 0.3149123934144827 0  0.69518737419149 0.0634051089053758 0  0.2971740475496061 0.2592172353407536 0  1.72990325744076 0.2380068107952482 0  1.356580098625191 0.2120393231351682 0  2.034370752044885 0.2668681600792073 0  1.51768709249349 0.3426260931494756 0  1.561883724969884 0.1650446847858835 0  1.197344062229598 0.2523725417393646 0  1.804085235518364 0.3468178408964637 0  1.817887819205233 0.2589243285818559 0  1.905897727272727 0.3485060975609756 0  0.6719798073392919 0.2688965171178177 0  0 0.05125 0  0.653125 0.35875 0  0.6396896119294488 0.1627615407790282 0  0.4274150154087412 0.1242548552168279 0  1.192836486056382 0.3562350748565544 0  0.8279124365364005 0.183856489168822 0  1.097485222388854 0.2083571153401724 0  1.28257088594801 0.2944411014911587 0  1.474860187679412 0.2504218616229368 0  1.406767003493824 0.2829282258560709 0  0.446875 0.04619219810344041 0  0.515625 0.04585361801037557 0  0.592043440706648 0.05125 0  1.845656689180403 0.1998310418452388 0  2.144958525570388 0.2909790873294231 0  0.6171090763650112 0.2492366900333857 0  2.2 0.15375 0  0.5145586920831158 0.3648371739579888 0  1.57794966442982 0.3540357145964566 0  0.721875 0.3633107922168974 0  0.0496154796471391 0.333125 0  0.5843750000000001 0.3662560860076676 0  0.5810878747760798 0.1474002776121195 0  1.508991196088596 0.1421783375065625 0  0.8840670607017558 0.2640994375393898 0  0.09776612425612034 0.2204896805326566 0  1.50436820029908 0.06143401634903343 0  1.223857000523521 0.0823554862453532 0  1.153316824384777 0.1289850171317837 0  2.148922302309752 0.1258841779285271 0  0.309375 0.04312325590431198 0  1.621993280276081 0.2841214267927899 0  1.550118654119087 0.2461998729100966 0  1.327182649291491 0.1216967252533594 0  1.051977450479407 0.1221382572915816 0  1.753125 0.04556020050186112 0  1.271875 0.04556020050186116 0  0.9816084133102366 0.05126138213476004 0  1.039051841454368 0.0572224914831029 0  0.9719230514536006 0.3480477870845102 0  1.94956388244759 0.1180512551534177 0  1.949997712993411 0.04965831614304109 0  1.771961817615021 0.1530278789497521 0  1.909246823951428 0.2812757146784527 0  0.2459536687882397 0.04668633953831142 0  1.948575539857022 0.2445328248721197 0  1.697271520964565 0.1233917627620729 0  0.7964897648514618 0.1211426571931604 0  1.065625 0.3689344961371042 0  1.085849084308977 0.3170853572226867 0  0.4702981435440001 0.260434880697798 0  1.577403511714593 0.05463601888079143 0  0.05622663515370135 0.05493816910862376 0  0.3267207591099919 0.3566194660323104 0  0.9003051618565143 0.3564049499960621 0  1.751571320346033 0.3651102912045228 0  0.1583785085108421 0.2994699345738728 0  0.1455283439499995 0.3542795598723423 0  2.2 0.35875 0  0.2347662494194072 0.298325008655211 0  0.1527284455616188 0.1065771775690181 0  0.1382139529076665 0.05427454456341477 0  0.8749341636311069 0.05110114999892954 0  0.643661668713109 0.05693499781019222 0  1.466879772203159 0.3611261772912453 0  1.990280163552011 0.3564754268533217 0  1.17471064520912 0.2990917256188288 0  0.5202693090594349 0.206382495511728 0  0 0.25625 0  2.2 0.25625 0  2.2 0.05125 0  0 0.15375 0  1.853978576207987 0.35875 0  0.9787513713939683 0.1487523696999336 0  0.240625 0.3722153812029779 0  1.515638456102889 0.2882700110184686 0  0.09048297387599738 0.3637717362208066 0  2.150453692751374 0.2387066338105111 0  1.323782677156475 0.04897634338873398 0  0.8074131292871642 0.3624701995505916 0  1.409375 0.03715320121951221 0  1.406484531114799 0.1087852750766809 0  1.134375 0.03715320121951218 0  1.627401732573545 0.04552157221025036 0  0.1170173172005315 0.1427610859166811 0  2.045405893604797 0.1105340662939892 0  1.255408269734577 0.1577307500159216 0  2.028125 0.03707597992059326 0  0.4743610090857199 0.1421513964721819 0  0.9354010469015898 0.250631300585664 0  0.04420832937638274 0.128125 0  0.8922386349349938 0.0992956419364831 0  0.1197849154434487 0.2663398672460083 0  1.248258025468107 0.2565907092181813 0  0.3746885856929528 0.370723531618974 0  1.203125 0.0366132337404304 0  0.5724622277005015 0.2751253816079333 0  0.3365425205162783 0.08395777655057959 0  2.072662025974815 0.2975086504196739 0  0.4581080832182547 0.3648371739579888 0  0.3874522734668214 0.2295447548840689 0  0.7827853612484443 0.04106550386289586 0  1.887722846421017 0.1760882698830035 0  1.472640588990488 0.1118278026240017 0  1.865937103925594 0.2604137786483804 0  1.463913572748262 0.2030442564990043 0  1.376426316059077 0.3186741374914345 0  0.6641993820150034 0.3141688596240831 0  0.2943117490824315 0.2130987422685822 0  0.3478153998082709 0.1666571081082676 0  0.3427990510599805 0.2575950027870776 0  0.7997118993855807 0.2216171933356366 0  
[...]
<PointData  Scalars="f_10-2"> 
<DataArray  type="Float64"  Name="f_10-2"  format="ascii">2.3301760197885381e-07  3.2223459614795452e-07  3.5036868133852754e-06  3.2787408836586264e-06  1.8578705063749486e-06  2.3451653888744838e-06  1.7690457789383886e-06  8.9456205504583473e-07  5.1686557084025437e-07  3.7554181832726787e-07  3.3411234003129827e-07  3.8619142461911499e-07  5.5014304391208540e-07  9.4744616577704504e-07  2.5517669662539834e-06  2.2537237752841225e-06  2.6048918497933772e-07  1.4821228576240938e-06  1.4271350674988767e-06  1.3534137918888910e-06  1.2116897309519776e-06  3.0082595425786633e-06  3.3055100915309806e-06  1.7439008109074145e-06  1.9429304070080290e-06  3.0165195865587202e-06  2.6963468821575252e-06  3.4561193923500532e-06  3.1914598754676436e-06  4.3610075659966330e-06  4.2561610959840067e-06  3.8880164285831235e-06  4.2911669275192241e-06  4.3984517419317833e-06  4.0416157369580712e-06  3.0583325702258971e-06  4.1345970263781767e-06  3.4931533523024052e-06  3.2478902993645320e-06  3.6217580156496205e-06  1.4462158620491537e-06  1.3854207083989691e-06  3.1127775072851506e-06  4.1860083724988411e-06  3.1833697332968119e-06  3.3941178305450402e-06  2.8689374188640449e-06  3.5237889941913250e-06  1.9966803776527780e-06  2.2551548698032944e-06  1.5358155575732291e-06  1.6549600441725933e-06  8.5716732781723219e-07  6.3190543598480525e-07  2.8115239316936185e-06  4.0887642975532981e-06  2.4928340591145160e-06  4.1705864571603601e-06  3.6325948274145182e-06  3.8605828122897410e-06  3.5182084001141830e-06  3.7859800515069983e-06  1.5097953313384179e-06  3.9945495439953640e-06  3.9371751825606995e-06  3.6296485161291096e-06  2.1456653656483365e-06  2.3301505867322022e-06  1.5381942575387106e-06  2.3139679437768642e-07  2.7547033485327930e-07  3.9328837509572681e-06  1.7171772796930662e-06  3.5409983084907369e-06  1.6638520406052516e-06  2.4734155051909561e-06  3.7275246179174808e-06  3.4939772836896320e-06  3.6458359214450930e-06  2.4081615114151714e-06  2.7236622673809254e-06  2.8634147250873388e-06  3.6006327773434275e-06  3.8340126125006842e-06  3.6299634317396592e-06  3.7909505583513431e-06  3.2997623617016062e-06  3.7903765264372210e-06  3.2945000920419098e-06  3.4543244824778233e-06  3.1402510584936707e-06  4.1614575305257734e-06  5.7829136979234677e-07  3.7398936536612262e-06  2.3649504556099575e-06  3.9337000735960900e-06  4.1232897363029142e-06  1.2460146102771058e-06  4.3107393013058825e-06  1.2630383099029489e-06  6.0411001723312643e-07  3.4998828696809299e-06  3.4352102484284691e-06  2.6004937650020363e-06  2.0981956027650550e-06  4.3044049760762000e-06  1.1842976209260968e-06  3.6532430717755481e-06  3.0661762157925151e-06  2.3766168028238560e-06  3.4797034060831289e-06  1.4252577517585109e-06  1.9379045674110327e-06  1.1716311534608572e-06  3.7125657359838052e-06  2.7040224897750258e-07  2.6541734824337474e-06  2.5278184848634620e-07  2.8606129961769866e-06  4.2359337515934386e-06  3.3863572824507470e-06  2.9134167715617983e-06  2.2691926945039704e-06  4.2267509651321895e-06  4.2532107519055434e-06  4.3880349361812209e-06  3.0248768409981257e-06  2.4131127177211136e-06  4.3393897345662082e-06  3.6018864649667833e-06  1.3850819711448450e-06  4.0090772763123244e-06  4.2441704081137457e-06  1.6260232519104064e-06  3.2513672824215052e-06  3.7203441565058467e-06  3.0486983638147333e-06  1.4924083732561236e-06  3.5989255065383470e-06  3.1731796652952229e-07  2.2529049576619320e-07  2.5475392172256720e-06  1.7869534752437950e-06  1.9238848698048401e-06  2.9421392980709934e-06  3.2906172482308069e-06  4.1057289559322017e-06  3.4283814309801910e-06  3.1007353973714932e-06  2.7890905883052633e-06  3.1593656487141780e-06  3.2670479123024593e-06  1.7882403350007416e-06  1.8612367017707950e-06  1.4532888423004433e-06  1.3324829838718531e-06  1.4052781860722534e-06  9.7797090615789871e-07  4.5891286060734287e-07  2.6915907614087078e-06  1.5502253930404874e-06  1.4697489305398123e-06  2.1212227332462870e-06  3.3523808832443225e-06  3.4742290850020211e-06  3.2252474342964429e-06  2.9151217911204381e-06  2.6244741939559139e-06  3.2866264698623530e-06  3.6629541015632635e-06  4.2905549984444200e-06  4.2282105758109514e-06  2.3734374099323945e-06  2.9748502645856700e-06  2.5830368404904290e-06  1.4468343265423553e-06  1.5455755394407872e-06  4.0812446341916928e-06  4.1197680735689262e-06  4.0563739129749883e-06  4.1603354951718989e-06  3.5965023342046957e-06  3.6418517162540548e-06  2.8044737164897235e-06  3.7425403303298754e-06  2.4611594022954906e-06  1.9893562801537642e-06  1.5108430553682074e-06  4.1659405232329298e-06  4.3787209990711759e-06  3.8987455545346086e-06  3.1634095658368384e-06  4.2781934859224798e-06  4.0539069567513857e-06  3.3216615099302716e-06  4.0116485370259294e-06  3.3553510756948916e-06  3.0059231511587963e-06  2.9712625770934260e-07  1.6467858950827719e-06  3.4864211784510253e-06  1.8197785802241666e-06  2.6423578991762842e-06  4.1326028872553152e-06  4.3728389839267129e-06  3.5408945819860857e-06  4.1289405824989359e-06  3.7667930484350271e-06  1.4745885932725930e-06  1.5282669502169571e-06  1.6539855459904584e-06  4.2318921284277681e-06  3.7257144549832815e-06  3.1877991517262839e-06  3.9892947191943916e-06  1.4759073992486035e-06  3.1241776788388741e-06  1.7218228098288050e-06  2.4959916502261604e-07  1.5248574419427357e-06  3.0035665042091515e-06  4.1408079527012758e-06  3.5791847684807977e-06  2.7802160581393593e-07  3.3975540658467013e-06  3.3167366581394620e-06  3.8806800517774658e-06  3.9067731815385000e-06  1.3891830763249849e-06  3.8116254051718776e-06  4.1582761153834107e-06  3.8994276915687979e-06  3.6853916097832957e-06  3.4672386208710954e-06  3.0075719168913734e-06  2.5275053694061415e-06  2.7136967331990865e-06  2.3475693347950142e-06  3.9241086680527565e-06  3.5569220290326374e-06  4.1632835448097703e-06  3.8329328624237894e-06  1.3054206380065780e-06  4.0520190749454148e-06  3.9900022165527656e-06  3.2223328093105481e-06  2.3195398758679016e-06  2.9785435980169211e-06  2.3425365459944827e-06  3.4098074900917589e-06  3.5687895009102683e-07  1.3833745701962135e-06  2.1123941831188578e-06  3.1865743042200266e-06  9.7527320509780446e-07  8.7771165441865282e-07  3.3712896376529796e-06  1.1474162413245080e-06  8.5901725436767304e-07  9.5387481725335508e-07  2.2818857054168557e-06  1.7964475153985692e-06  2.9665139056313121e-06  3.3410352572860860e-06  3.3721123907009445e-06  3.3112755102576092e-06  2.4855982536967673e-07  3.8950973919076769e-06  3.5861512036258512e-06  2.6869659291520104e-07  3.2786294225692028e-06  3.9833255757695080e-06  1.1851881222390242e-06  3.7423726452574833e-06  3.9657203900178427e-07  3.9836742508977754e-06  3.1048015255977912e-06  1.8795756278306473e-06  3.1449764934301429e-06  3.7929747877085660e-06  2.7192887849409548e-06  3.3932572753218318e-06  4.5586254595528188e-07  3.8643142139144494e-06  4.2431511038628924e-06  3.5328735136123439e-06  2.3585432631441890e-06  3.8671995903222880e-06  2.8149300099327699e-07  3.0365690573342389e-06  5.4306142369343111e-07  4.0234977566269395e-06  1.3923199224588386e-06  2.8438182116422745e-06  2.5392318618221112e-06  1.3986671287263932e-06  3.6992883089602519e-06  1.4486429227984851e-06  2.3832856809396677e-06  1.9772433846219006e-06  4.1949262456930437e-06  3.8527702761028755e-06  3.9882376112489586e-06  4.3800808124746587e-06  3.2931024771438320e-06  2.1637217848753899e-06  2.2819500209617249e-06  1.9682390406038907e-06  1.7009452056350730e-06  4.0233927434550065e-06  3.8317501399069800e-06  4.0961711116315687e-06  3.5439200007051001e-06  3.7970506550550701e-06  3.1497693416431792e-06  4.1889123144326401e-06  3.4872402735377873e-06  3.9861773622428773e-06  4.3956782372894124e-06  1.1533661808904590e-06  3.2367969870828973e-06  4.1250285068648488e-06  3.7458516505377471e-06  3.5570293324457347e-06  3.6614926211500797e-06  2.5948187561731128e-07  3.9547849250285298e-06  3.4887523510968510e-06  3.2585166230212538e-06  3.3346934359798833e-06  5.9960192352206752e-07  1.8698555400908065e-06  2.9762994893593799e-06  3.9118583272027737e-06  3.6786559313464915e-06  1.0427016438413937e-06  4.1579559885999736e-06  4.3770736985862993e-06  3.1429209233609176e-06  4.3268555079446218e-06  2.9084242503694093e-06  1.7990115484858539e-06  3.3293563467518219e-06  3.4363262144065526e-06  2.0618053175300588e-06  2.2237819097770347e-06  3.5397488700857280e-06  3.3142690845995526e-06  2.4977262928158679e-07  2.3464456566234295e-06  1.7653129526923150e-06  4.2257622303849924e-06  4.0175847104801543e-06  4.1739971627442631e-06  3.4811889525310265e-06  3.7848424354778655e-06  3.2172526026806006e-06  3.2730886071155547e-06  2.7719331804445260e-06  9.2389776988288395e-07  3.1347042336120832e-06  2.5983378651746758e-06  3.4763649031373762e-06  3.1110661082247772e-06  2.9854755143035118e-06  1.5154855365961123e-06  8.1886802488758333e-07  4.0495721068485207e-06  1.9334364296316747e-06  4.3481948221490263e-06  2.6140977276867925e-06  4.0761598356463413e-06  3.2238811501024336e-06  1.1545738665146515e-06  4.3144638315896888e-06  2.7023868613445080e-06  4.0556087144835421e-06  3.2304703037110471e-06  1.5882808721627603e-06  1.6719329530454542e-06  4.0151049826222376e-06  3.3442932183756177e-06  3.9685275136641852e-06  4.1950033625216848e-06  4.2871628472090958e-06  2.8891091065467862e-07  4.0320111177282960e-06  3.3350830835854351e-06  3.5475154821246896e-06  2.9899109761473164e-06  3.1762622936648941e-06  3.5021936005024940e-06  3.4440645180731612e-06  3.7235986845831611e-06  3.7569341523667384e-06  3.7112957286513354e-06  3.3808592602772103e-06  3.8651470848437047e-06  3.5058704980115903e-07  2.5865930144998835e-06  1.4068527955240138e-06  2.3644106544038004e-07  3.2966704677551005e-06  4.1778128818965637e-06  3.6579459990775178e-06  2.9069717333456036e-06  3.1102818353567377e-07  1.5425533491117765e-06  1.0866041465084386e-06  3.6587024901750751e-06  2.5289101356653432e-06  2.0668556792786555e-06  1.8366818697182481e-06  4.3375726910566783e-06  2.6636763917603455e-07  3.8901749454469595e-06  2.8233675350061402e-06  3.6800492806393298e-06  3.8974909567386426e-06  1.2677943866968736e-06  9.6322703914440904e-07  4.1270449956854888e-06  1.2824152076417780e-06  3.5469044608163441e-06  3.0736190268160085e-06  2.1695233102515800e-06  3.3166698663141045e-06  1.3814109840439547e-06  2.0664444972301708e-06  3.2205348374269435e-06  1.9187611704740972e-06  2.3892254497079731e-07  3.2582502459315961e-06  4.2779799494027069e-06  4.4044331840833919e-06  4.0746338401665570e-06  4.0440875905894850e-06  3.8053713994066458e-06  3.0781353835873207e-06  3.5733850444878502e-06  4.2170013282868530e-06  4.2500868638147962e-06  4.0724160346773524e-06  3.6929501204540696e-07  1.4591788436415209e-06  3.5556934428302522e-06  3.8575294938851410e-06  3.5778265288617773e-07  1.3374089513066525e-06  3.4819179109217303e-06  3.4774359818768433e-06  1.7948532116272639e-06  7.8052984011462412e-07  1.2485785021382433e-06  2.8813052353457543e-07  2.9323279089492341e-06  3.0526272826386487e-06  4.3228289783561640e-06  2.9479082594030341e-06  2.9713173526373238e-06  3.4117132335750091e-06  2.0439125577206537e-06  4.0282309924384645e-06  4.0737516597890662e-06  3.4576649925663106e-06  2.0513996625309272e-06  3.7307981245385146e-06  4.0442713197876756e-06  4.0559869336618315e-06  3.4326374360045374e-06  3.4711036193675977e-06  4.3417497031724397e-06  3.8530502392535390e-06  4.2989137317835516e-06  1.6984456912367438e-06  3.4118931524248802e-06  2.5314080685892512e-06  2.3139990690580439e-06  2.2179951699376277e-06  2.0187852649536248e-06  2.0706187008202758e-06  3.7546244346618499e-06  3.8148714168233526e-06  2.4408287065732615e-06  4.1654559486326710e-06  3.3044073595007267e-06  3.0784289579017101e-06  4.3568756154601827e-06  4.2251521066288800e-06  4.0096473670393973e-06  4.2245853839621263e-06  3.2023954000057317e-06  1.4203831938735181e-06  1.4135036198890263e-06  3.1002549748914523e-06  2.1979567678965077e-06  3.0907636178957921e-06  3.8305578160003647e-06  2.4511849215888816e-06  2.3166974187510573e-06  2.6997216214625924e-06  2.6431436401820562e-06  2.8003296008142933e-06  3.1185095121955660e-06  4.3801279998543211e-06  4.0027613956441515e-06  2.4318622023093024e-06  1.6845142271166749e-06  1.5305994432450320e-06  2.5618473315402995e-06  1.9304402446162915e-06  1.4543958386996434e-06  1.4395106054455702e-06  1.6545387584729309e-06  2.1095983497325513e-06  1.7932904253449753e-06  1.7188268308337827e-06  4.1809730651454731e-06  2.8909828691768100e-06  4.0563445838904435e-06  1.7294492568625530e-06  2.5036010045886547e-06  2.3196561413806338e-06  3.3389906569674583e-06  3.0347773090417345e-06  4.1452335711917255e-06  4.1307316353336435e-06  3.8495404340776959e-06  2.5430156759586302e-06  2.3471783458703690e-06  2.7678236273719295e-06  1.4760154079870573e-06  2.9683306390908484e-06  2.4871527795427868e-06  3.5021237736429311e-06  3.4950160914942793e-06  2.6244606762804642e-06  3.0637379428055793e-06  2.8303719067235944e-06  3.0908899121264334e-06  2.1890065898703588e-06  3.3779747678265722e-06  1.5802437920767015e-06  2.7414000414489442e-06  1.7203972100204195e-06  3.2763549592858443e-06  2.1826254248687835e-06  1.3649741719384366e-06  1.4486050427976677e-06  1.3966902797115821e-06  6.4524372637212719e-07  1.1117534202517796e-06  1.2841316027135312e-06  4.4907600259262316e-07  1.5960799072523924e-06  1.8631315852393890e-06  1.3985613575150898e-06  1.4426153004351873e-06  1.4134632397120568e-06  1.5093290157846147e-06  1.4615496609367444e-06  1.4939628480440509e-06  2.3415674900000773e-06  2.7487914959147871e-06  3.2783520031931009e-06  3.4648240451910963e-06  2.8637027325947547e-06  3.4840482051255280e-06  3.2065117926197585e-06  3.1243621604553260e-06  3.8933967823129578e-06  2.3819418425788148e-06  3.9485556475873050e-06  4.2287718235156398e-06  1.4834874431984403e-06  4.1841556602605526e-06  3.8506499685232123e-06  2.8773049383531313e-06  3.4567850267511507e-06  3.4129909576311165e-06  3.4824036620416243e-06  6.0509084124186121e-07  3.1445762685196215e-06  2.8131157253963496e-06  4.0552611102777613e-06  3.5831146533624676e-06  4.2896403357815428e-06  1.2213804498583971e-06  3.5839522658293472e-06  3.8864114704918094e-06  4.1313256556047325e-06  4.3943115378744838e-06  3.6142501540967270e-06  2.8956400553746918e-06  2.5729796902481167e-06  3.4937426479165527e-06  2.0896453609843985e-06  2.5515650244682897e-07  1.2993519927683005e-06  3.3037989277558101e-06  1.5244128071560954e-06  3.5300232027119902e-06  3.7770460006983863e-06  3.1803344074473179e-06  1.5901586331798266e-06  4.3694033192088528e-06  3.2886752980971065e-07  2.9459777561050838e-06  4.1906346908304290e-06  4.1215265170425886e-06  5.7046300508099100e-07  3.4982000331465374e-06  1.1373145422821447e-06  2.5642835835920371e-06  2.9180163642894116e-06  3.9947378588086649e-06  3.6898879610124657e-06  3.1652607841703282e-06  4.3457226992443080e-06  3.4353000854798532e-06  3.6222841710749551e-06  4.1422494329282055e-06  3.7078554028614019e-06  3.8524891364734638e-06  1.6477732959003254e-06  4.2085420126230664e-06  4.0537208709939825e-06  3.0808790418887969e-06  2.4275941697861920e-06  3.6723735881507449e-06  3.6032994820517413e-06  5.3103092081592758e-07  3.2165574547426682e-06  1.9021883158793085e-06  2.9641604514991181e-06  1.9175330103363525e-06  1.2590843678168886e-06  9.9260705322749515e-07  2.9630584082416241e-06  3.0035802647586992e-06  3.7861574478002744e-06  4.3420161622852418e-06  1.3490036501810385e-06  3.5674426903930923e-06  3.5422624366144119e-06  1.7342882081200555e-06  3.5883101398976758e-06  3.1961717069471341e-06  2.3386679136585246e-06  3.4254687634283869e-06  4.3471174664816821e-06  3.6170918535695450e-06  3.2657615560088430e-06  4.1875311006284839e-06  3.0239215330901426e-06  3.0788749283750403e-06  3.5841020932672814e-07  3.9876227219385645e-06  1.6092130930447110e-06  4.3035314790994534e-06  3.7719418280550753e-06  4.2389967238627654e-06  4.2962791599744777e-06  3.4504820595564550e-06  3.8709750547549124e-06  3.8212172313479360e-06  4.0974109097326611e-06  3.2074608249799032e-06  3.2422290297099201e-06  3.1371173635244588e-07  3.2545233004758941e-07  4.1384091910369222e-06  3.7694390528531617e-06  3.1277685822762421e-06  4.6383384808492752e-07  1.5435438583496029e-06  3.1811632691500940e-06  1.2376538874757788e-06  1.1129551877294704e-06  1.8830903867598880e-06  3.9246830227381489e-06  2.4137249751031372e-06  2.7061958744782188e-06  1.4215552317105268e-06  3.2724776046521850e-06  3.1704508703738785e-06  1.9340740371377458e-06  2.5302288645492018e-07  1.4911312973264581e-06  1.4347833197723314e-06  3.6457157954139097e-06  2.5333646658676267e-06  3.4981281832929598e-06  4.2076868257186265e-06  4.0167863651750815e-06  3.7884509887333483e-06  3.9914943547009150e-06  3.5599442714057942e-06  1.8649791167759609e-06  4.3430712891090541e-06  4.3862949690872737e-06  3.9846758495456189e-06  3.9531741769576030e-06  3.8048216418276977e-06  3.6280747815331246e-06  3.9281513686272462e-06  3.8788259034134347e-06  2.8157518603186725e-06  6.4675854803691441e-07  8.8031336072033020e-07  4.0227774417679544e-06  3.1135241482450046e-06  4.3496158522153972e-06  4.2773781718179573e-06  3.8206792815741353e-06  4.2857042895218224e-06  3.1468547205049231e-06  3.4331251019352600e-06  1.9552821699142392e-06  2.1179451243321596e-06  2.4858329044987638e-06  4.0743649291444416e-06  4.1847802971074649e-06  3.8383322771540866e-06  4.0783565922200573e-06  2.0517805068030057e-06  2.7268092711192895e-06  4.2140373065512501e-06  3.3773012041785964e-06  3.1949337510979888e-06  2.5907377889004150e-06  2.0090219859795739e-06  3.9005050969483703e-06  1.1838100723522335e-06  3.6021851715143786e-06  3.9525178175004766e-06  1.9382905259376422e-06  2.6073441053599846e-06  1.6321740879778118e-06  3.5529101882049295e-06  3.5307724298876041e-06  2.8763614618983534e-06  1.8768429257319618e-06  2.2174146816739447e-06  3.2570308983814943e-06  2.4856156511940249e-06  3.9542190493163737e-06  1.6363204706687389e-06  4.1793518531906746e-06  3.5656357389847373e-06  1.5497462743280682e-06  3.4712409436683097e-06  2.9287851436748538e-06  1.5656093563985330e-06  8.4943966596472200e-07  3.1223969878018972e-06  3.5619939963972379e-06  3.8867265698421919e-06  3.6438472525330463e-06  1.4344126718344904e-06  4.1391763408161487e-06  3.5127042771447545e-06  4.0945526808394901e-06  2.9610605430142166e-06  3.3860490879599481e-06  3.4128906089222213e-06  3.9098071888368733e-06  3.9656467949810140e-06  3.9477286297396155e-06  3.5178802083563514e-06  1.3604308417722527e-06  4.4036568087035361e-06  2.8327177546456926e-06  3.0140807716967527e-06  2.6229684855320159e-06  3.0197830578065288e-06  1.4333736360254580e-06  1.5098720344217304e-06  3.2643995839592274e-06  5.1937161588220939e-07  1.2567751980716465e-06  4.3124463294600452e-07  7.4063499683455356e-07  1.3348541101908999e-06  2.9549965953692722e-06  1.3182140927948763e-06  3.7058390789538699e-06  4.0398603070974284e-06  2.6210009098353200e-07  2.5844542290759935e-07  3.3628450190617599e-06  3.1524185140834015e-06  7.5069104099041209e-07  3.8969015784799165e-06  2.4045564322216445e-07  2.3306125736203415e-06  2.2573416544787144e-07  3.6553659975838304e-07  6.9548854213731081e-07  8.6394578985032354e-07  4.0665237452870705e-06  4.0474386143438989e-06  2.0641553182845344e-06  4.2811241435746013e-06  3.9386783475614079e-06  4.2356081707186087e-06  3.2320543765143358e-06  3.1915716022877792e-06  4.2596885088127454e-06  4.2489655926976587e-06  1.4526594938249389e-06  3.2302127239576873e-06  3.5823208178457950e-06  3.4824478858476228e-06  1.4950345255392591e-06  2.2279802097203191e-06  3.2672930239119028e-06  4.0819072833790939e-06  4.0216162835279841e-06  2.4507676358775447e-06  3.5965185965130050e-06  3.9872565759993096e-06  1.4847637343789334e-06  4.1125692416100729e-06  1.4088040390247083e-06  3.2519828656062282e-06  3.4262763072881482e-06  1.9528836602184350e-06  4.2212070598631552e-06  3.6746493391425