<?xml version="1.0"?>
<VTKFile type="UnstructuredGrid"  version="0.1"  >
<UnstructuredGrid>
<Piece  NumberOfPoints="2446" NumberOfCells="4585">
<Points>
<DataArray  type="Float64"  NumberOfComponents="3"  format="ascii">0 0.41 0  0 0 0  2.2 0 0  2.2 0.41 0  0.2404508497187474 0.2293892626146237 0  0.25 0.2 0  0.2404508497187474 0.1706107373853764 0  0.2154508497187474 0.1524471741852423 0  0.1845491502812526 0.1524471741852423 0  0.1595491502812526 0.1706107373853764 0  0.15 0.2 0  0.1595491502812526 0.2293892626146237 0  0.1845491502812527 0.2475528258147577 0  0.2154508497187474 0.2475528258147577 0  1.1 0 0  1.1 0.41 0  0 0.205 0  0.55 0 0  0.55 0.41 0  0.275 0 0  0.275 0.41 0  1.65 0.41 0  1.65 0 0  0.8250000000000001 0.41 0  0.8250000000000001 0 0  1.375 0 0  1.375 0.41 0  1.925 0 0  1.925 0.41 0  1.5125 0.205 0  1.7875 0.205 0  0.6875 0.205 0  0.9625000000000001 0.205 0  1.2375 0.205 0  2.2 0.205 0  0.4687002074688797 0.2068568464730291 0  1.99375 0.2152743902439024 0  2.0625 0 0  2.0625 0.41 0  2.2 0.3075 0  0.4125 0 0  0.4125 0.41 0  1.7875 0.41 0  1.375 0.1486128048780488 0  1.5125 0 0  1.7875 0 0  1.5125 0.41 0  0.8250000000000001 0.2613871951219511 0  0.9625000000000001 0.41 0  0.9625000000000001 0 0  0.6875 0.41 0  0.6875 0 0  0.1375 0 0  0.1375 0.41 0  1.2375 0 0  1.1 0.1486128048780487 0  1.2375 0.41 0  1.65 0.1486128048780487 0  1.126715909090909 0.2793064024390244 0  1.676715909090909 0.2793064024390244 0  0.8517159090909092 0.1306935975609756 0  1.348284090909091 0.2793064024390244 0  0.34375 0.3032389320646208 0  1.894702181800738 0.1282910975492754 0  2.092797818199262 0.1282910975492754 0  1.85625 0.3075 0  0.61875 0.3075 0  0.61875 0.1025 0  0.3648540804333487 0.1240075933101478 0  0 0.3075 0  0 0.1025 0  2.099172119769978 0.25625 0  0.48125 0.09238439620688085 0  0.5781001037344399 0.2059284232365146 0  0.48125 0.3196743479159776 0  0.7265881057911006 0.3055240343720796 0  1.99375 0.08395950269330846 0  1.459960956013612 0.3075 0  1.569025960719943 0.2986889805672169 0  0.75625 0.08213100772579164 0  1.03125 0.3278689922742084 0  0.923871252904788 0.3078247185783941 0  1.959375 0.3126371951219512 0  1.749222215368287 0.1025 0  1.275777784631713 0.1025 0  2.2 0.1025 0  1.225938124459196 0.3075 0  1.550777784631713 0.1025 0  1.000777784631713 0.1025 0  1.44375 0.07430640243902442 0  1.16875 0.07430640243902437 0  1.899250267340833 0.2229966846119207 0  0.1020898364287272 0.3140258291809757 0  1.766482954545455 0.2934032012195123 0  0.3405058858996321 0.2119987970531874 0  0.7710785630958338 0.1710968191298857 0  1.046078563095834 0.2389031808701144 0  0.2 0.3400647632937836 0  1.421109702350723 0.2261157654379721 0  0.2800464974185557 0.08982544815605742 0  0.098916018031319 0.09171660955420841 0  2.13125 0 0  2.118919042110979 0.3422084711244843 0  1.30625 0.41 0  0.89375 0 0  1.597888256393107 0.2173787389261347 0  0.20625 0 0  1.829299675393195 0.07400700849299596 0  1.71875 0.41 0  1.16875 0.41 0  2.038220665644273 0.332420740103091 0  0.34375 0 0  0.417496017710808 0.2696595573092803 0  0.2 0.07687845740457822 0  0.9295982307099278 0.1343158415898188 0  0.07390688010811153 0.1697064032433452 0  0.5238366813727013 0.2578302467013575 0  0.05452951551825875 0.25625 0  0.5229630068078351 0.1548816096928243 0  1.452769549894695 0.1548122580621249 0  1.369219062229598 0.07430640243902442 0  1.30625 0 0  0.8504409521244898 0.3356935975609756 0  0.8821881244591965 0.205 0  1.720943423819132 0.1714577452753128 0  1.157188124459196 0.205 0  1.094219062229598 0.07430640243902437 0  1.03125 0 0  1.304056576180868 0.1714577452753128 0  1.67579304192913 0.07430640243902437 0  0.2751941921308361 0.3346083473122598 0  1.209670467133757 0.1362100266964769 0  1.025335513626278 0.1700681449722324 0  0.7562500000000001 0.41 0  1.58125 0 0  0.7567170593862014 0.2409196493502535 0  0.6926714215682891 0.1272249611432207 0  0.4139715849905988 0.3397932387114203 0  0.9840787304190477 0.2717749043358119 0  0.06875000000000001 0.41 0  0 0.35875 0  0.9281250000000001 0.06276726142697993 0  0.5507396469029935 0.3219409231578227 0  0.5504468037989405 0.09136885600634273 0  1.58125 0.41 0  1.631724228912893 0.3381867502687533 0  1.825608881788174 0.14499488549201 0  1.85625 0 0  1.44375 0 0  1.44375 0.41 0  1.85625 0.41 0  2.13125 0.41 0  0.7562500000000001 0 0  0.89375 0.41 0  0.4812500000000001 0 0  0.34375 0.41 0  0.4812500000000001 0.41 0  0.20625 0.41 0  0.06875000000000001 0 0  1.16875 0 0  0.61875 0 0  0.61875 0.41 0  1.03125 0.41 0  1.71875 0 0  1.99375 0 0  1.99375 0.41 0  1.340625 0.3489494290853124 0  1.134375 0.3489494290853123 0  1.700180620188976 0.3438659752031281 0  2.135782184673599 0.07126652247502523 0  1.668441847249787 0.2129203728327609 0  1.295782514339747 0.2378437748815763 0  0.8233075729931248 0.06842334294821524 0  1.409375 0.3520314716057996 0  0.403505597322782 0.182067236678212 0  0.378125 0.05794951541303489 0  0.3043468223249023 0.1518321115979534 0  2.129248544730567 0.1906135162504124 0  2.060771381434487 0.1989445750470348 0  2.013252586573865 0.1496169464686054 0  1.942766402200229 0.1734448904596831 0  1.895522487186454 0.06076163953489683 0  2.069553871656643 0.06605731020975725 0  1.274680914880868 0.3520219391081363 0  1.614713220494657 0.09473434380863296 0  0.7899021319497519 0.3149123934144827 0  0.69518737419149 0.0634051089053758 0  0.2971740475496061 0.2592172353407536 0  1.72990325744076 0.2380068107952482 0  1.356580098625191 0.2120393231351682 0  2.034370752044885 0.2668681600792073 0  1.51768709249349 0.3426260931494756 0  1.561883724969884 0.1650446847858835 0  1.197344062229598 0.2523725417393646 0  1.804085235518364 0.3468178408964637 0  1.817887819205233 0.2589243285818559 0  1.905897727272727 0.3485060975609756 0  0.6719798073392919 0.2688965171178177 0  0 0.05125 0  0.653125 0.35875 0  0.6396896119294488 0.1627615407790282 0  0.4274150154087412 0.1242548552168279 0  1.192836486056382 0.3562350748565544 0  0.8279124365364005 0.183856489168822 0  1.097485222388854 0.2083571153401724 0  1.28257088594801 0.2944411014911587 0  1.474860187679412 0.2504218616229368 0  1.406767003493824 0.2829282258560709 0  0.446875 0.04619219810344041 0  0.515625 0.04585361801037557 0  0.592043440706648 0.05125 0  1.845656689180403 0.1998310418452388 0  2.144958525570388 0.2909790873294231 0  0.6171090763650112 0.2492366900333857 0  2.2 0.15375 0  0.5145586920831158 0.3648371739579888 0  1.57794966442982 0.3540357145964566 0  0.721875 0.3633107922168974 0  0.0496154796471391 0.333125 0  0.5843750000000001 0.3662560860076676 0  0.5810878747760798 0.1474002776121195 0  1.508991196088596 0.1421783375065625 0  0.8840670607017558 0.2640994375393898 0  0.09776612425612034 0.2204896805326566 0  1.50436820029908 0.06143401634903343 0  1.223857000523521 0.0823554862453532 0  1.153316824384777 0.1289850171317837 0  2.148922302309752 0.1258841779285271 0  0.309375 0.04312325590431198 0  1.621993280276081 0.2841214267927899 0  1.550118654119087 0.2461998729100966 0  1.327182649291491 0.1216967252533594 0  1.051977450479407 0.1221382572915816 0  1.753125 0.04556020050186112 0  1.271875 0.04556020050186116 0  0.9816084133102366 0.05126138213476004 0  1.039051841454368 0.0572224914831029 0  0.9719230514536006 0.3480477870845102 0  1.94956388244759 0.1180512551534177 0  1.949997712993411 0.04965831614304109 0  1.771961817615021 0.1530278789497521 0  1.909246823951428 0.2812757146784527 0  0.2459536687882397 0.04668633953831142 0  1.948575539857022 0.2445328248721197 0  1.697271520964565 0.1233917627620729 0  0.7964897648514618 0.1211426571931604 0  1.065625 0.3689344961371042 0  1.085849084308977 0.3170853572226867 0  0.4702981435440001 0.260434880697798 0  1.577403511714593 0.05463601888079143 0  0.05622663515370135 0.05493816910862376 0  0.3267207591099919 0.3566194660323104 0  0.9003051618565143 0.3564049499960621 0  1.751571320346033 0.3651102912045228 0  0.1583785085108421 0.2994699345738728 0  0.1455283439499995 0.3542795598723423 0  2.2 0.35875 0  0.2347662494194072 0.298325008655211 0  0.1527284455616188 0.1065771775690181 0  0.1382139529076665 0.05427454456341477 0  0.8749341636311069 0.05110114999892954 0  0.643661668713109 0.05693499781019222 0  1.466879772203159 0.3611261772912453 0  1.990280163552011 0.3564754268533217 0  1.17471064520912 0.2990917256188288 0  0.5202693090594349 0.206382495511728 0  0 0.25625 0  2.2 0.25625 0  2.2 0.05125 0  0 0.15375 0  1.853978576207987 0.35875 0  0.9787513713939683 0.1487523696999336 0  0.240625 0.3722153812029779 0  1.515638456102889 0.2882700110184686 0  0.09048297387599738 0.3637717362208066 0  2.150453692751374 0.2387066338105111 0  1.323782677156475 0.04897634338873398 0  0.8074131292871642 0.3624701995505916 0  1.409375 0.03715320121951221 0  1.406484531114799 0.1087852750766809 0  1.134375 0.03715320121951218 0  1.627401732573545 0.04552157221025036 0  0.1170173172005315 0.1427610859166811 0  2.045405893604797 0.1105340662939892 0  1.255408269734577 0.1577307500159216 0  2.028125 0.03707597992059326 0  0.4743610090857199 0.1421513964721819 0  0.9354010469015898 0.250631300585664 0  0.04420832937638274 0.128125 0  0.8922386349349938 0.0992956419364831 0  0.1197849154434487 0.2663398672460083 0  1.248258025468107 0.2565907092181813 0  0.3746885856929528 0.370723531618974 0  1.203125 0.0366132337404304 0  0.5724622277005015 0.2751253816079333 0  0.3365425205162783 0.08395777655057959 0  2.072662025974815 0.2975086504196739 0  0.4581080832182547 0.3648371739579888 0  0.3874522734668214 0.2295447548840689 0  0.7827853612484443 0.04106550386289586 0  1.887722846421017 0.1760882698830035 0  1.472640588990488 0.1118278026240017 0  1.865937103925594 0.2604137786483804 0  1.463913572748262 0.2030442564990043 0  1.376426316059077 0.3186741374914345 0  0.6641993820150034 0.3141688596240831 0  0.2943117490824315 0.2130987422685822 0  0.3478153998082709 0.1666571081082676 0  0.3427990510599805 0.2575950027870776 0  0.7997118993855807 0.2216171933356366 0  
[...]
<PointData  Scalars="f_10-2"> 
<DataArray  type="Float64"  Name="f_10-2"  format="ascii">1.3084670169135233e-09  4.9577256909917242e-09  3.3385668871365499e-20  3.2296813963710488e-20  7.4061087913430303e-07  1.1302386633724829e-06  7.4019306438934786e-07  1.9409265298156155e-07  4.9709666306836645e-08  2.7446848321673966e-08  1.9010217156875094e-08  2.4307524666261587e-08  3.8895269512715186e-08  1.6609594541431208e-07  1.2056072467671796e-07  9.7486670871054562e-08  5.2474340097940616e-09  1.5363502781484311e-07  8.7621262092903922e-08  7.2263647278247221e-08  3.0643191710578199e-08  1.9524114284599420e-12  2.0028639321116943e-12  3.1181800229385384e-07  4.3324600755807291e-07  1.8931141390529966e-09  1.6352504873242569e-09  3.8912533933212381e-16  3.3780369698917604e-16  8.0578172577602447e-10  3.4397467971289751e-13  2.2291110758381853e-06  1.5916499141939258e-06  1.5074915068042301e-07  2.9696641433191543e-19  1.5972749032988212e-06  3.3961681305182133e-16  3.4226794237943220e-18  2.7452928482739196e-18  1.8151893958719842e-19  8.9896794596810846e-08  4.3346022643154298e-08  2.6044855185782968e-14  1.3785518984313402e-08  8.5406317240596860e-11  2.9567597621345943e-14  7.5370218598571198e-11  1.6939906733235354e-06  2.4769602598654373e-07  3.2072107445200389e-07  2.0875975757788867e-07  3.1863824260262675e-07  3.3474320525364908e-08  1.0690807537253834e-08  2.2217494661220347e-08  6.0535102812467221e-07  1.8429912998422777e-08  1.8749883746812639e-11  3.8796565454665755e-07  7.4308653802695977e-12  1.6228538576519252e-06  1.8799475994905737e-08  1.3557752589545999e-07  7.8828130290762252e-15  8.3880502660868453e-18  2.2720533377414507e-14  6.8648836341115100e-07  9.1469586552102938e-07  3.2074936581234354e-07  2.4269456116454693e-09  4.9301625934332719e-09  7.7547891679389562e-18  3.7021035534385593e-07  1.9829959055322304e-06  2.3132298183750081e-07  9.6375640985206659e-07  1.9198831146761544e-16  1.5414319529596873e-09  1.2155311548517046e-10  9.2511534116032830e-07  4.6958585651678138e-07  9.1960480616511977e-07  7.0073568184026499e-16  7.1026280569467499e-13  5.3346408560981706e-08  2.0834107293604664e-19  9.7250509327435747e-08  1.9337839958136644e-10  8.2031603996242536e-07  1.7150147647933898e-09  1.5744691659963604e-07  8.5773419664007167e-15  1.8590787836980952e-08  4.4582846043747639e-13  1.0574805474763778e-06  2.1658338085092526e-06  9.4762834109767279e-07  5.4147582306554222e-08  6.0848822025020403e-09  1.2754558656649752e-07  3.3430902183549649e-08  2.5925842968450118e-19  1.8561092964940402e-18  6.0092164287933669e-09  4.0278975548029355e-07  8.9210219976371449e-11  5.7227541547025488e-08  4.1007615831901807e-14  2.6456067929290609e-13  4.6848367306036344e-08  3.4737879332446425e-17  8.1655550775033859e-08  5.0384429219941813e-07  9.7486471226904885e-08  1.4269294136057767e-06  6.2713424600437754e-09  1.1470783997907668e-06  4.3875601618648228e-09  1.4239114913017274e-06  2.8602860275240794e-09  7.7116603005508617e-09  6.7279550777356493e-09  6.9018123136064087e-07  2.0230833522974914e-06  2.5339139760193538e-12  3.9949470900106495e-07  3.2494068744067593e-07  2.1959975468112327e-07  5.3262813776698893e-08  4.5556832317547319e-12  6.9428813729042901e-08  1.7715734313602674e-07  1.1272196594691792e-06  2.7053278426690465e-07  1.4712398225972817e-11  1.9924439467837932e-06  1.5172818410066525e-06  9.0521784371123362e-08  1.0821699680413861e-06  2.9721048855792322e-09  1.4749939925544587e-09  6.7610632250924990e-07  3.5746055303124696e-07  5.5389016323133793e-07  1.2799411318510480e-11  1.4132966363900286e-11  8.6404195937004855e-14  3.3642038046641541e-15  4.0218223305043412e-10  3.9921133789080962e-10  3.3882775766199783e-15  2.5948371431726298e-19  3.9519922624806783e-07  2.9652444369110189e-07  1.0797546765611629e-07  3.6819535167582923e-08  5.6578636937988599e-08  2.1204490098358280e-08  1.1366873090306707e-08  5.8441025509373962e-08  2.2933512245543183e-07  1.4215199108165173e-07  1.6762940945084237e-07  2.6374512808304505e-13  3.2985392885510930e-17  3.3370146661999900e-17  9.4791742273119596e-09  1.5999735722288327e-07  1.8114150423153279e-12  1.1013737326475741e-18  1.2504924913066164e-11  5.9125170899442300e-08  8.1113108069650655e-07  2.4562202953640970e-09  1.2449393995949051e-06  1.1532344710939964e-07  4.8401481994199848e-07  2.8630186740858437e-18  3.2379842753476360e-17  1.5330421309787672e-16  1.9281937899956983e-15  3.9670813786334708e-15  1.0667695759458583e-17  2.6906681957757896e-08  3.2919214884967127e-11  9.1244904745705493e-07  6.0493213451539458e-07  3.4710432418406173e-07  1.9287868936538757e-12  2.2056866526007120e-08  7.0998501109011519e-17  2.5440072143969718e-10  2.2105570182967645e-10  2.2017871428183393e-07  7.3033577142506951e-14  1.0764196954484513e-13  2.5926123600463879e-15  1.4397608082223952e-06  4.6107871300848425e-09  2.8157137494639521e-07  1.9278992710892893e-06  5.1563532730330939e-07  7.6636389391234612e-08  2.1753459017807045e-06  7.0442373438953383e-07  4.9736627317594144e-08  1.7279603330772603e-09  6.0191194983468142e-09  1.2301870960880231e-07  1.8219341429534164e-07  3.1058117231341260e-07  5.0422734270941789e-14  1.2561134650371804e-18  1.6212860167072311e-06  2.6569405219548610e-19  1.0110515821786829e-07  4.5131816602796225e-11  3.5354753596471117e-07  2.6485263691684576e-09  1.6273912934701019e-07  1.5282488161718707e-06  7.3771803849753816e-10  1.5471413473857572e-06  7.2059614410252685e-09  3.5240638612937208e-10  8.9676077876053027e-08  3.2295884679269433e-07  1.1364256999712797e-18  9.1497346671598223e-08  3.3924235422307239e-11  2.8535128014389693e-10  2.7393496708361364e-08  7.2956836787762576e-07  2.7726270864769294e-13  2.6526462272862281e-08  4.8511205386418400e-07  3.8796276571856194e-07  4.6851966763619821e-07  1.1558528115026719e-15  5.1432324029178195e-16  4.9401660968486437e-13  4.7473299854878574e-15  8.6162360883607893e-08  1.4907772983297582e-15  4.0671085639222066e-12  1.5355689157637158e-06  2.1074248619740115e-07  3.7324565377484408e-07  8.6801754188327599e-07  5.0995270160886656e-11  8.3444652795658111e-09  5.4226693873146461e-08  4.9171552164825810e-07  2.5676238863611179e-13  5.3339932954876757e-08  2.5899464140647103e-08  9.7000168099758510e-20  8.2405871622239428e-08  7.2717455593436098e-08  5.2975623911080476e-08  6.3387048606417827e-07  4.4214538703836881e-07  6.1066963947167475e-10  1.3303932825093009e-16  1.9800861254960975e-07  1.8007479448218414e-06  4.0243037002351842e-09  2.5857052810967989e-19  1.0933242695822335e-19  5.6119888790729077e-09  1.2057466447715299e-14  1.3051308073290243e-06  3.6528605196946541e-08  5.0368814109213559e-10  6.2065360783233035e-09  1.3066275295589653e-18  1.2070530467317957e-08  4.4679536132637345e-07  1.8565614829417936e-09  5.5470149018408919e-09  1.3360315941709385e-07  1.1127983218909714e-11  3.0431651396318367e-08  4.0252814549080142e-17  1.0699835140199054e-07  2.7038634099260931e-17  9.9177719898443530e-07  1.5020830156592439e-06  6.4866834494889526e-09  1.1314639636347772e-06  2.7541704931925796e-08  1.1027682516663439e-07  4.8946132736824812e-08  6.0730864702490070e-08  1.0319098338888800e-06  1.4078464043744333e-07  1.5292654508215678e-17  7.1637595441655204e-08  9.9794946782637295e-07  5.4339693134441825e-07  1.2634553231202525e-14  1.3627119290156861e-09  2.2970741012861577e-14  2.4820364781645349e-09  7.5488789922967083e-09  7.0918362905505983e-07  1.0267445274560888e-06  7.7171829471684413e-07  3.9131741528473132e-07  2.1634006486591921e-06  1.8736261576933788e-12  4.6903412528702110e-13  1.8525628139678693e-18  2.1299261280202136e-06  1.5626832288471213e-06  1.2737433050647108e-06  7.9188316886434156e-07  6.4569276564422957e-07  1.0546354546163871e-08  2.5071881494255364e-07  9.9372368199903217e-18  6.7041468741675989e-11  2.1337501767231932e-06  1.9041022230375145e-06  9.6896621056707782e-14  5.1620382593433003e-09  3.3790623180701053e-16  4.4347111530955698e-19  8.5174325858407809e-19  6.1461632701811708e-18  2.1118394381861386e-08  4.8889569231388810e-07  5.0533058361608928e-12  1.9685433625567213e-13  1.5131458033837109e-16  4.6237586273765860e-08  1.2213717604607243e-08  2.4973279776173295e-07  1.9140221400994742e-10  3.5866638723473747e-11  3.1809244390113539e-11  3.0851129581232931e-07  7.0822286288698908e-13  1.0678093707733079e-12  2.1007792074820790e-07  2.9584889714696102e-07  2.5089238271655193e-19  2.3529938656104534e-19  1.6114644107488629e-09  9.2014013438064357e-07  3.8075358392056424e-07  1.8037530043058420e-06  1.8680403127060492e-06  3.0230726444348049e-11  6.7362928017115889e-14  1.4884304045520521e-14  3.7041296674369438e-11  4.3802654514038817e-16  1.3463082762782510e-06  1.0134913128685022e-07  9.7349856752059977e-15  2.2220810036769173e-07  8.5105421750768065e-13  3.3174218235217758e-12  8.2903885927772194e-07  1.8725955959095412e-07  1.6209442851152434e-08  3.4495019942380641e-17  2.8155838955492026e-07  2.8958585601909331e-10  3.6781471319601550e-08  9.6082109754271818e-18  5.6493958790609811e-10  6.4620334006440600e-08  8.6815866711734963e-07  1.3255863799437852e-06  9.6125074635828425e-11  1.5393259399312816e-06  1.7050588586537403e-07  2.3230517431235484e-07  2.2738577096974577e-06  2.9029528035341034e-07  1.9426290654443900e-06  4.9421909684473780e-07  4.6694926751577728e-07  9.6237973451891107e-09  8.8652526481840530e-19  2.2073763232352255e-08  1.2106523701009651e-16  1.2138889711194105e-06  1.0444688813585151e-15  9.6617991115190616e-15  1.1591791594902379e-15  1.7313977083069429e-15  5.0505420131793811e-10  1.8055787619438369e-12  3.0425017296891276e-12  1.2883286082395002e-11  6.2324421367826451e-09  8.4560710305686327e-07  1.1903757258891824e-07  1.5764717457607409e-09  1.9690436685445735e-17  6.2888850455529958e-09  2.0495508860302685e-06  6.9151471229928265e-07  6.7304030466425649e-09  2.0366855031960060e-07  6.9247475249663690e-08  2.1486360584474483e-13  1.0573665136221489e-06  3.7811073107472323e-07  4.4170320779961613e-07  1.3485327432635157e-09  5.5500691528670748e-09  3.1004640633167887e-07  1.0914303468481225e-06  4.4477080723009976e-17  2.9937905781248750e-09  4.0520695922220867e-08  2.6229806342845170e-08  7.0502226380030684e-10  3.3876526673507105e-08  1.9949280871818144e-06  1.6245092127623490e-06  7.9564439507386048e-07  1.8135496697300259e-06  2.4297527757378524e-07  5.9562054274905722e-07  1.6813554094634814e-06  4.1093416536019616e-07  3.1410126449922532e-09  1.1310834571914106e-10  1.1775453790023937e-12  8.4036705426037656e-08  1.5163555052265502e-12  5.3889717261375621e-08  1.1846221938977917e-08  4.8669621714673066e-09  5.0949884106314629e-07  7.0577129620979817e-12  2.8061461685771073e-08  6.1319641182609431e-16  1.7119723300389122e-08  7.7119421827199521e-08  1.6586999214869620e-07  1.0116409638130154e-07  1.1657220014184305e-08  6.5253899331422936e-08  4.2369044765722879e-11  6.5114340848249009e-12  4.0709238150884264e-07  7.8496918795953669e-08  2.4869963915999585e-07  4.9930509559788194e-09  1.4335238049187363e-06  8.1620279395762400e-12  9.5114959959947167e-11  9.7970299950452777e-11  1.4702816749269651e-06  1.0462228612825635e-14  6.0664155498736800e-07  2.9058665333813331e-17  1.0459373740266268e-16  2.5277540702497768e-08  9.1510310422934049e-07  4.5059313408203286e-18  4.3324472353351095e-18  8.4981499049844618e-19  2.5903691188040316e-13  1.4856819181444271e-10  1.1446557740448403e-06  1.0275426590448753e-06  1.3937101134670074e-06  3.5869927391150434e-07  3.5398865180502398e-09  2.1327026315516850e-07  4.4025003724215340e-07  4.9625759121325634e-07  4.2411874028665527e-07  5.3289404222250116e-07  5.1947606415092655e-19  2.7621513970372510e-18  3.2305889407838294e-07  1.2253336487453071e-15  1.4317410937015209e-18  1.4570274769064317e-06  2.3248697796226715e-07  1.7682338239768455e-06  2.7170757833537139e-14  2.0298565606247521e-13  1.6472934691381621e-06  1.0012423898146804e-07  5.2889797418747490e-08  1.0396948344944695e-06  9.8851925812357694e-07  9.2430890975664681e-07  2.0075607270909815e-06  8.1523252664544816e-08  6.9477347633792160e-08  1.1145473406662952e-08  3.0621585130133494e-09  3.5142459753267846e-09  2.4252343667924461e-07  4.9477261889387120e-09  3.3949043938968956e-18  2.9161438092625368e-08  2.9685460097211856e-07  1.5210299809006860e-07  1.2349094214751404e-06  6.6488487905998420e-07  1.0249304829974498e-07  8.4956515496500272e-08  2.3412940850890014e-07  6.3748605114949649e-07  3.7601258870238397e-07  3.2767102244975482e-07  3.6908268462810639e-14  3.6329152757549081e-08  1.4231953574532246e-06  3.7403672128462578e-07  1.0882544693977234e-06  9.1182160283241454e-07  3.8827268591104793e-09  6.6025299215227697e-13  3.4714501898867996e-16  9.8905135260417556e-17  8.4926691649649808e-16  1.0412514353565671e-08  1.1661437420887866e-07  8.8671839103376255e-08  1.2674619988342005e-07  3.6620424289208910e-09  1.6846421651054464e-07  7.8017417636666946e-20  8.8592067200750373e-19  8.5478373602525250e-08  9.3295953521704718e-10  1.7813533151721628e-10  9.0176135580624833e-14  1.3139718853592480e-07  1.0143605662119034e-13  2.4317768658150602e-07  7.7864836475916590e-10  3.6212983150701115e-07  8.0565560345631918e-20  3.7169094961663164e-07  3.9680439167860337e-08  9.6008890250807337e-08  4.7998378576717350e-08  2.1043235833692073e-08  2.6351416980096932e-08  6.5108719876742208e-08  5.9443177442765939e-09  2.7186595029483611e-07  4.1978047988727448e-07  7.7488935756139618e-08  1.1094071180436932e-07  6.8816251021722289e-08  1.8681083353442386e-07  1.2512102192059503e-07  1.7086942460141012e-07  2.7521707449375406e-07  3.5454746616589469e-08  5.5111544152126872e-12  1.0988845351431420e-16  1.2449721584794029e-08  1.0385183056244781e-17  1.0259410723861888e-16  6.0132926732443692e-13  1.3537228343960495e-16  8.6784152876436979e-07  3.1709052660069324e-09  3.1779103638664835e-07  1.9325120898662329e-07  3.0422447354999052e-08  3.6979314618636790e-08  1.4222071532122384e-07  2.2434112559045656e-10  6.3760700780842752e-10  1.3648852825889242e-15  3.9349250410208915e-08  1.5685948978610945e-09  9.7943159934437157e-10  4.2245957600587864e-12  6.4240311580355377e-15  4.1146666247047571e-12  1.1128347234309063e-07  1.9621669128583445e-06  6.1480790772591555e-14  1.1533526223873938e-11  4.7182247849612237e-08  2.1893555968633724e-15  2.0905625358527020e-10  9.5631119315745782e-07  6.0675990594279467e-07  2.8976905100552888e-07  4.7241917178766789e-09  1.0019071317042662e-07  1.6721743654756119e-11  1.7959009008448766e-07  7.7527344617650271e-18  8.1676732757067918e-18  6.1102187850030627e-07  2.4701314557989772e-07  1.9113904973677073e-08  1.0803759883444119e-08  5.2970190563001933e-08  3.7304638467465116e-15  4.7443004876907763e-15  1.0466803710836156e-08  6.9769563351782848e-18  7.8461482960901312e-08  1.0545924120846853e-06  1.3500051856752160e-06  1.7447667595975343e-06  4.9354309592369240e-17  3.5891678781890372e-14  9.1792345279383428e-07  3.5694558268402366e-14  3.2435493271809928e-12  5.3738972219411464e-14  5.5265986800827049e-16  6.2497894320385726e-19  3.1708187654585832e-07  1.5900697599506849e-06  1.4860170371428679e-10  1.3566198123597037e-06  6.0277060694921579e-07  7.5523584488968370e-11  1.2253388022711267e-11  4.5776130488415457e-08  1.2215593439345303e-15  6.4645372630542720e-07  3.6599972653136834e-11  7.4836338557697773e-07  2.1890411128361060e-07  4.7255244798066568e-08  1.4798229419791522e-06  1.6740963160752621e-11  4.2727647092499048e-07  4.7518778056657098e-10  9.8492226831916578e-08  1.5937409607248588e-08  1.1616186261269186e-06  3.8438762427582519e-07  2.0032155252807940e-06  3.6170408204339618e-15  8.5760785009036100e-07  9.5559608983544865e-16  1.6586536618835976e-07  1.5190068091132386e-06  3.8879031001541460e-11  1.5506526774024091e-13  4.3247742774637097e-07  1.1898761812190159e-07  1.6787551960400724e-08  9.9014955486694788e-13  2.7775087229286884e-07  1.0648436862605375e-07  1.4074989432968396e-07  3.2345704785746145e-07  1.4569896030588712e-11  8.0576600281852205e-10  2.1215489312540723e-13  5.2412130128890540e-14  1.0549835301405633e-17  2.1500712409499198e-10  1.1647959041034481e-16  4.8167319610898963e-09  5.5144496239756307e-09  3.3598771871675121e-10  5.0742294666693043e-15  3.0023325127924287e-08  1.7260925526098884e-08  1.2890764265277050e-07  1.1564704368312471e-10  6.6209597492369640e-08  3.4198992839212462e-08  4.2606155711238632e-07  3.9907464151712970e-16  9.6094711062953838e-07  4.9810885075723498e-09  7.4787239338912282e-08  5.1511407627260784e-08  9.9458992848056297e-15  3.3538599929236690e-07  4.5194525540849968e-09  2.0073415683498408e-07  8.9682976053329461e-08  3.8080298975281795e-18  9.9609621899476642e-07  2.6059791545646371e-14  1.6755134793018136e-07  2.9395220200173149e-11  1.2794175122994334e-14  2.7834862075800072e-19  4.9189188827779781e-07  4.9881008138347779e-07  6.9191401136076044e-07  5.4295209902036290e-07  1.9773559422260853e-06  1.8322128357978312e-11  2.1837042950158903e-06  3.5787995480951537e-19  1.0340785235328321e-06  2.4571180548828227e-17  5.4744688757828991e-07  1.7095046867798966e-08  3.4817875400417453e-08  8.7297251259275388e-15  1.1716756661809605e-06  1.1019278618349541e-08  3.1389516355629942e-09  1.4807974700195583e-09  1.2103131258546096e-09  8.3650164336973438e-10  1.0452772928004534e-14  4.8490576074030599e-07  7.0388523270460505e-07  4.5879762081295888e-07  2.2661090896929412e-06  2.1295216901237801e-06  1.1084551699860955e-08  5.5695003810787323e-09  6.0058341186041033e-07  2.0050632373530741e-07  1.8823269384345763e-14  1.1957298424895724e-06  1.6172293408962581e-06  1.0786454492629711e-06  5.8333478409462900e-07  2.2892448198231757e-19  5.7531207267250129e-08  8.3196050466935246e-08  6.7336398521788736e-08  4.6328295514614074e-07  1.4204015487579234e-08  2.8220401178191974e-07  7.7174242270039699e-13  1.6169079386386604e-06  2.6258877957744093e-07  5.1131269784252057e-07  9.5420129889157582e-07  3.9280503924523182e-17  2.5532420776486879e-07  2.0316309432194513e-06  2.8608308129642838e-07  1.4791645550151709e-09  1.6240003467652878e-11  2.0410268422401351e-07  1.7895569987590096e-06  1.3484400752124156e-06  2.1560863398059151e-07  6.8498692952836843e-08  8.2831400248726088e-14  1.2971549611779920e-18  2.4716154126805713e-18  4.3717166158633731e-19  8.3303470786163504e-08  2.0610094428781671e-14  2.2988777182366091e-16  8.9726242235345004e-07  1.2678612109013532e-08  2.7532926962848740e-13  8.7974982671301801e-14  7.1046817329859421e-11  2.2716221498363948e-06  2.4268277427454281e-07  2.2896986403345148e-07  1.1736120684248594e-07  3.1081684030700039e-08  6.9704176429222461e-08  4.8822864009776038e-07  3.2086847346301008e-07  1.3269267665905375e-06  6.9341672304003858e-08  1.1388591784951667e-07  3.1682288897221189e-08  2.0288417685797880e-08  8.6978511348561099e-08  1.0835079122038710e-08  1.5492524986097042e-08  7.7264015714588901e-08  2.1500873071261802e-07  3.8670856434218698e-08  2.0194808463930208e-06  2.7183746727435096e-19  5.4530736368875706e-09  5.0386878878492969e-09  7.4354177142932087e-11  2.1605730271680193e-11  5.2505175058504723e-08  2.9867630608441737e-15  2.8303187473886841e-09  9.0740416577313330e-07  1.8358480901742257e-09  7.7471514399729424e-09  5.1105869884647102e-08  5.5853284659932536e-08  1.8577758656054278e-15  1.1363570645620381e-17  6.0447373065984861e-07  5.1368255051230823e-10  1.7139954751207363e-10  1.5394390181160435e-10  1.2235844541980954e-08  1.1457802730103321e-07  4.9429757616159400e-11  1.3406299002614448e-13  1.0443455459755404e-07  1.2763323253249154e-13  1.4420172350397604e-15  4.9541920125957008e-16  9.2142387878570055e-08  9.1317878016073816e-07  7.3541163195810652e-13  2.2205757801636982e-06  6.4085522127854606e-13  4.9480631844610343e-08  3.1910691573023380e-09  1.7040031601312341e-06  1.4822813876083397e-07  1.5979664986111617e-14  8.2577647775419637e-08  5.4789847425682261e-08  1.8958972892313661e-06  4.9979900700026656e-07  6.4135114862029802e-12  1.2616622379362