<?xml version="1.0"?>
<VTKFile type="UnstructuredGrid"  version="0.1"  >
<UnstructuredGrid>
<Piece  NumberOfPoints="2015" NumberOfCells="3722">
<Points>
<DataArray  type="Float64"  NumberOfComponents="3"  format="ascii">-0.0001 0.0005 0  -0.0001 0 0  0 0 0  0.00025 0 0  0.00025 0.002 0  0 0.002 0  -0.0001 0.002 0  -0.0001 0.0015 0  0 0.0015 0  0 0.0005 0  0.00025 0.001 0  0 0.001 0  0.00025 0.0005 0  0.00025 0.0015 0  0 0.00075 0  0.00025 0.00075 0  0 0.00125 0  0.00025 0.00125 0  0.00025 0.00175 0  -0.0001 0.00175 0  -0.0001 0.00025 0  0.00025 0.00025 0  7.500000000000002e-05 0.001675 0  0.000125 0.001125 0  0.000125 0.001375 0  0.00025 0.000625 0  0 0.000625 0  0.00025 0.000875 0  0 0.000875 0  0.00025 0.000375 0  6.979166666666665e-05 0.0003270833333333333 0  0.0001025 0.0018525 0  0.00025 0.000125 0  0.000125 0 0  4.23681420906888e-05 0.0001619472568362755 0  0.000125 0.0005625000000000001 0  0.000125 0.0008125000000000001 0  -0.0001 0.001625 0  -0.0001 0.001875 0  -0.0001 0.000125 0  -0.0001 0.000375 0  0.000125 0.001 0  0 0.001125 0  0.00025 0.001125 0  0.00025 0.001375 0  0.000125 0.0015 0  0.00025 0.001625 0  0 0.001375 0  0.00025 0.001875 0  0.000125 0.002 0  0.000109375 0.0006875000000000001 0  0.0001250000000000001 0.00125 0  0.0001068361006683376 0.000442577798663325 0  1.440094339622642e-05 0.001775268867924528 0  0.0001540183873915135 0.0001875 0  2.76706456008896e-06 0.001877403581040801 0  0.0001585745793850839 0.0002854527891930564 0  8.720930232558255e-07 0.001603197674418605 0  0.0001732142857142857 0.0016875 0  0.0001347744360902257 0.001597435553168636 0  0.0001158885842956642 9.740563730130939e-05 0  9.375000000000002e-05 0.0009062500000000002 0  -1.626105271938615e-06 0.0003988008842175509 0  7.087199543508638e-07 0.0002537105785690198 0  0.0001840677966101695 0.0018125 0  0.0001045456293557708 0.00176130278981812 0  -2.719152391504561e-05 0.001691971575945826 0  0.0001796875000000001 0.0009296875000000002 0  0.0001679779411764706 0.00191797794117647 0  0 0.0014375 0  0.00025 0.0010625 0  6.250000000000006e-05 0.0013125 0  6.250000000000007e-05 0.0011875 0  0.00025 0.0014375 0  0 0.0010625 0  0.0001875 0.0011875 0  0.0001875 0.0013125 0  6.96207528975509e-05 0.001932981580066475 0  3.353652401024904e-05 7.774201775297706e-05 0  8.411486220931477e-05 0.000236237849652481 0  0.0001875 0 0  0.000142823158843224 0.0003673469122062925 0  -0.0001 0.0001875 0  6.587916379906098e-05 0.001555138868425454 0  -0.0001 6.25e-05 0  -0.0001 0.0019375 0  0.00025 0.0004375 0  -3.600209908304261e-05 0.0003256837590511178 0  0.0001794363879826742 0.00046875 0  0.0001686580882352941 0.0006314338235294118 0  0.00025 0.0005625000000000001 0  0.0001846093920839712 0.000707675742811065 0  -0.0001 0.0018125 0  0.0001874999999999999 0.001542938238860305 0  -3.213164183352466e-05 0.00015625 0  -0.0001 0.0015625 0  -0.0001 0.0004375 0  7.552083333333334e-05 0.0007552083333333334 0  0 0.0008125000000000001 0  0.0001875 0.00140625 0  6.250000000000001e-05 0.00109375 0  0.000171875 0.0010625 0  7.812499999999999e-05 0.0014375 0  7.365487500662575e-05 0.0005089402499867486 0  0.0001857047534443299 0.0007776595068886598 0  6.250000000000006e-05 0.0008437500000000001 0  0.00025 6.25e-05 0  7.552083333333334e-05 0.0006197916666666667 0  0.0001803668478260869 0.0008580163043478263 0  0.0001865353317728434 9.375e-05 0  0 0.0005625000000000001 0  -3.206952414740212e-05 5.99387613641566e-05 0  0 0.0009375 0  6.250000000000004e-05 0.0009687500000000002 0  0.00025 0.0003125 0  0 0.0006875 0  0.0001674379586005303 0.001750972742229207 0  0.00025 0.0019375 0  0.00025 0.0015625 0  0.0001875 0.0009921875000000002 0  0.00025 0.0006875 0  0.0001875 0.0005361115501932482 0  -0.0001 0.0003125 0  6.25e-05 0 0  6.25e-05 0.002 0  0.0001875 0.001125 0  6.250000000000001e-05 0.001375 0  0.00025 0.0008125000000000001 0  0.00025 0.0009375 0  0.00025 0.0001875 0  0.0001875 0.002 0  0.0001875000000000001 0.001473958333333333 0  0.00025 0.0013125 0  0.0001250000000000001 0.0013125 0  0.0001875000000000001 0.00125 0  0.00025 0.0011875 0  0.000125 0.0011875 0  0 0.0011875 0  0 0.0013125 0  -0.0001 0.0016875 0  0.00025 0.0018125 0  0.00025 0.0016875 0  7.031249999999998e-05 0.00103125 0  6.249999999999983e-05 0.00125 0  8.208375929370402e-06 0.001938855830770112 0  -4.7857464738127e-05 0.00184375 0  4.316945067791428e-05 0.0004522210057452531 0  6.210696282219104e-05 0.000390849149981966 0  -4.610657459913428e-05 0.0002152222408901659 0  0.0001983697834039188 0.00034375 0  0.0001943225313857762 0.0004070708680660774 0  -4.691133250195072e-05 0.00178125 0  7.681518415655715e-05 0.001614584282578459 0  -4.931925422966405e-05 0.00190625 0  0.0001352964195488529 0.0007434480263280357 0  0.0001944846236263007 0.001602450151305334 0  6.568064352018571e-05 0.001495661392359861 0  -3.70838084959068e-05 0.001551915906406549 0  -5e-05 0.002 0  -5e-05 0.0005 0  6.532322852623004e-05 0.001806044546386454 0  5.362334422576724e-05 0.001730527111356194 0  0.0001374421296296297 0.001441840277777778 0  9.695144248995276e-05 0.0001801496509031745 0  0.0002020091936957567 0.00021875 0  0.0001981241875230271 0.0001502837734807598 0  0.0001323334758087269 0.0005040788428382431 0  -4.146241810091205e-05 0.0004419199344807296 0  0.0001489242486572434 5.136686079634643e-05 0  8.321091375855303e-05 5.198234240676677e-05 0  5.786260519930249e-05 0.0005646474939039498 0  5.468750000000004e-05 0.0006725260416666668 0  0.000114501953125 0.00106829833984375 0  0.0001940559571286142 0.001867989780658026 0  0.0002021856715393236 0.0005885377321222842 0  1.714534965019838e-05 0.0003074432826679207 0  1.966524637395769e-05 0.001657961404153051 0  5.271886865903067e-06 0.0002004441062450425 0  -4.446540406085277e-05 0.001637688125893958 0  1.452138837167723e-05 0.001549575239245609 0  8.05820692564578e-07 0.00182545023343076 0  5.656350352579093e-05 0.001880690393249485 0  -9.92258357803206e-06 0.0001081086847864159 0  -4.818851457078599e-05 0.0003760526925472804 0  0.0001293177770426947 0.001715504412994361 0  -5.023919761775239e-05 0.0002679650210938418 0  -5e-05 0 0  -5e-05 0.0015 0  0.0001156491926496855 0.001904828748526785 0  0.0001278065352606601 0.0008655188450868868 0  0.0002116071428571429 0.00165625 0  0.0001276098423371204 0.001653728789800177 0  0.0002083916076000527 0.001722700514744425 0  0.0001093750000000001 0.0009531250000000002 0  4.166666666666669e-05 0.0009062499999999999 0  0.000206713569888 0.0006632614932290299 0  0.0001209389822491854 0.0003206758686110877 0  0.0001562964833882987 0.0002364763945965282 0  0.000209531449667685 0.00028125 0  0.0001380955605098323 0.001547894340823767 0  0.0001488128241220233 0.0001365872592109057 0  6.775340381863523e-05 0.0001167190399057008 0  5.787262062810447e-05 0.0002786522328899773 0  0.0001317913990285241 0.001951287732957889 0  3.999561774661512e-05 0.0007201937510074146 0  3.578484195402297e-05 0.00078125 0  2.954753474953149e-05 0.0003545793002935334 0  0.000141707759585261 0.001790938224377791 0  0.0001467796571817504 0.0004154622571523019 0  0.0002109375 0.001034288194444445 0  -6.480823336181969e-05 9.375e-05 0  0.000120327818627451 0.0006397058823529412 0  0.0002029609469157797 4.703905308422026e-05 0  -5.541649713445025e-05 0.00195308319770756 0  4.687500000000002e-05 0.001140625 0  0.000203125 0.001359375 0  -6.253263547420583e-05 0.001592929510427845 0  -6.537768707893344e-05 0.00171875 0  5.338286228671524e-06 0.00172776134723551 0  0.0001504869278184959 0.001847188381158174 0  0.0001039507633195663 0.0002778359102289778 0  0.0002170338983050847 0.00178125 0  8.025380291005293e-05 0.0008011326058201059 0  0.0002176728957075298 0.00190625 0  0.0002033805900889519 0.001953380590088952 0  0.00013671875 0.0009179687500000002 0  0.0002084485101199401 0.0008941212987256373 0  0 0.00134375 0  0 0.00140625 0  9.375000000000003e-05 0.00134375 0  0.0002187499999999999 0.00128125 0  9.375000000000006e-05 0.00115625 0  0.0001562500000000002 0.00128125 0  9.375000000000006e-05 0.00128125 0  9.374999999999997e-05 0.00121875 0  0.0001562499999999999 0.00115625 0  0.00025 0.00115625 0  0.0001562499999999999 0.00134375 0  0.00025 0.00109375 0  0 0.00128125 0  3.125000000000003e-05 0.00121875 0  0.0001562500000000001 0.00121875 0  0.00025 0.00121875 0  0.0001058844454830745 0.0003981979863932014 0  3.906249999999999e-05 0.001459554099079816 0  0.0001523437500000001 0.0009648437500000001 0  3.399688798025723e-05 0.0005277898052740988 0  5.007228393026917e-05 0.0002064928396919561 0  1.511904357698252e-06 0.0004416612644831131 0  0.0001064277883072895 0.0001387794235017616 0  9.375e-05 0.002 0  3.124999999999999e-05 3.262384462718295e-05 0  0.0001621454321158311 0.001629521681490136 0  4.253472222222224e-05 0.001413194444444444 0  0.0002074652777777778 0.001086805555555555 0  0 0.0005937500000000001 0  0.0002047388999886611 0.0008192795894537761 0  0.0002122029049295775 0.0009573613556338031 0  -0.0001 0.00034375 0  0.0001216567030166281 0.0002135464558213271 0  4.159016800834027e-05 0.001963890813671086 0  0.0001531947958319015 0.0006744586697248603 0  0.0001589464300740878 0.0005892925673256268 0  3.679477298664679e-05 0.001583793200585754 0  9.808229891051957e-05 0.001579943183146714 0  0.0001000846903885222 0.001532549998848081 0  0.000161437328254133 0.0003262298318196536 0  -1.104862217495329e-05 0.0003590599669424263 0  -6.859466009036068e-05 0.000411413527490347 0  3.133763825656503e-05 0.001696727579230948 0  -0.0001 0.00153125 0  -0.0001 3.125e-05 0  -0.0001 0.00046875 0  0.000164438442554394 0.0008209591369609272 0  3.980977369600495e-05 0.0006008276979482524 0  8.948843125727396e-05 0.0003618030458996243 0  0.0001104233794002758 0.0007748172931443184 0  0.00025 0.00184375 0  3.142114403379366e-05 0.001850308194408311 0  2.763759464230236e-05 0.0001239413287036337 0  0.0001458582157711332 0.00109181553682835 0  9.375e-05 0.001400390625 0  0.0001403502286290945 0.001037315453528179 0  0.000105893443847073 0.001465501
[...]
<PointData  Scalars="f_38"> 
<DataArray  type="Float64"  Name="f_38"  format="ascii">1.3746874559536857e+00  2.4834103874194358e+00  2.5411188721425093e+00  3.1844115602127543e+00  3.1956150441033855e+00  2.5519253982645549e+00  2.4944066478465108e+00  1.3920858279232267e+00  7.8618374709451266e-01  7.3891679806817590e-01  1.0941841567981194e+00  0.0000000000000000e+00  1.8971052632377401e+00  1.9048595452577728e+00  0.0000000000000000e+00  1.2327912179569505e+00  0.0000000000000000e+00  1.2348610630245518e+00  2.8421101346566870e+00  2.1388031713928348e+00  2.1268761550636932e+00  2.8313339355278324e+00  2.0566673002937503e+00  5.8876503712357742e-01  8.7383987929025853e-01  1.4745610836394063e+00  0.0000000000000000e+00  1.1241687757453616e+00  0.0000000000000000e+00  2.4067041747644740e+00  2.0268620191683091e+00  2.6051119467267458e+00  3.0956414676315718e+00  2.7735693271136532e+00  2.4491587758976725e+00  1.0632237418417032e+00  6.1847198831265249e-01  1.7167359967053659e+00  2.4054405526651568e+00  2.3936255847947705e+00  1.7030858018724755e+00  5.6661334535470087e-01  0.0000000000000000e+00  1.1250126268147276e+00  1.4793336949625284e+00  1.3518015192997459e+00  2.4163650877878196e+00  0.0000000000000000e+00  3.1066207695096901e+00  2.7846981307247831e+00  6.6053597056642022e-01  6.6974482625923304e-01  1.5733282873457046e+00  2.2801004272888101e+00  2.6525131972355491e+00  2.4690596573152424e+00  2.4025570292693068e+00  1.6312891150555544e+00  2.3678051838676355e+00  1.8788964032369215e+00  2.6963117781180248e+00  4.3665623874003062e-01  1.6076462032410406e+00  2.1716008517727792e+00  2.7564541073770163e+00  2.4074851758296139e+00  1.9826737150889686e+00  8.1213526083560328e-01  2.8673126642281641e+00  0.0000000000000000e+00  1.1017779519775737e+00  3.8979007082728567e-01  3.1511357601932893e-01  1.6706236985698486e+00  0.0000000000000000e+00  9.0491134955578734e-01  1.0640384602972546e+00  2.6341574392310338e+00  2.5507198010157222e+00  2.3568583541678256e+00  2.9567074510745281e+00  2.0503802697017908e+00  2.2823614620684172e+00  1.4337800782349219e+00  2.4607497668940348e+00  2.4725589037016245e+00  2.1532353880335919e+00  1.9013607815629938e+00  1.7350607852126037e+00  1.0897401929104109e+00  1.6644096790103891e+00  1.0128152183748551e+00  2.2939428935470811e+00  1.8281683690086838e+00  2.3699631272681976e+00  1.4964481850496276e+00  1.4818032853567960e+00  4.0867865611705995e-01  0.0000000000000000e+00  1.2938605971594785e+00  2.9270438711611513e-01  7.7732464950046143e-01  7.6185191485292725e-01  1.0113549387741785e+00  9.2714502303711999e-01  3.0500609370665188e-01  3.1619802626171158e+00  5.6853583957622345e-01  8.4246792136906701e-01  2.9034919930888279e+00  0.0000000000000000e+00  2.4896850371148922e+00  0.0000000000000000e+00  2.8679891300708216e-01  2.6368421547113914e+00  0.0000000000000000e+00  2.5510234764679622e+00  3.1731574472747486e+00  2.1619368542251145e+00  8.3710799444686046e-01  1.3326378063599393e+00  1.4887159863613693e+00  1.9305466975083592e+00  2.6349525196388042e+00  2.6461684755083605e+00  8.6555339359514449e-01  4.7155790415760335e-01  1.1660473692449937e+00  1.1013652181957660e+00  2.9850458705200311e+00  2.9681324222244250e+00  1.5352290453764077e+00  1.3359603543615255e+00  7.4883591470086319e-01  9.6818466167680095e-01  1.1674473654128334e+00  6.1955638648987998e-01  0.0000000000000000e+00  0.0000000000000000e+00  1.9430870932327775e+00  2.9957018909340265e+00  2.6471250900484069e+00  3.2245921413897588e-01  3.4332990194850954e-01  2.5405013391599969e+00  2.3707321231303391e+00  1.3142864753075836e+00  1.7267292658602851e+00  2.2350001817438359e+00  2.3299075945950651e+00  2.0620439046316541e+00  2.2373508478960153e+00  1.7965617630564417e+00  2.4594441471483157e+00  7.2616703194576060e-01  2.1119865320930815e+00  1.0033804887872118e+00  1.3989355272999642e+00  2.5091798053409109e+00  1.2878322302823377e+00  2.4355050199562620e+00  2.2110546460516298e+00  1.1566826267432284e+00  2.5197806547227204e+00  2.7341726672444935e+00  2.8637404183951878e+00  1.3597805907259071e+00  1.4179865537159191e+00  2.8233537918750358e+00  2.6600335160369895e+00  5.8665636150634004e-01  3.5423545120981670e-01  5.2614017696261384e-01  2.8903550154991859e+00  1.3740669583508391e+00  2.0156133924894140e+00  1.8972086513832340e+00  2.3163301879497791e+00  1.7696861266738040e+00  1.3104732573719853e+00  2.3786938705986143e+00  2.5534490370343219e+00  2.4626770557398019e+00  1.7003113184062066e+00  2.3320836428788687e+00  2.0873845845657977e+00  2.4976102404058205e+00  1.3040944219593009e+00  2.7091597967410657e+00  6.0458726693569764e-01  2.3882375823580553e+00  2.1016669737483893e+00  2.6042570343064866e+00  4.9981874732595388e-01  1.9541231158499389e-01  1.1979701006900687e+00  2.1720293402456492e+00  2.5411699008802864e+00  2.5852578810308477e+00  1.6515087375163051e+00  2.7316081529896228e+00  2.5664713211900292e+00  2.1780854911710925e+00  2.7890325371414679e+00  2.3278138795025696e-01  1.8811430709784585e-01  1.8443560045182843e+00  2.5797385622705082e+00  1.8505917569660422e+00  9.3738063072942868e-01  2.4403811289662256e+00  8.0865774724553174e-01  2.9962074762671698e+00  2.4938061181267770e+00  2.2659021123092629e-01  1.2376663696287902e+00  1.5912814953464796e+00  2.0520331035232076e+00  2.1324631788936204e+00  2.7207573977174175e+00  2.2777019202130195e+00  2.7986540483218767e+00  4.0749562087944602e-01  3.0221960919350015e+00  3.0092438168036741e+00  6.2777782981844621e-01  9.4522563384212488e-01  0.0000000000000000e+00  0.0000000000000000e+00  6.2138598323256022e-01  1.1506071651915977e+00  4.5547732556257320e-01  8.6282320307010452e-01  5.3819510321324882e-01  4.8699704107074177e-01  7.4484675680062351e-01  1.1436841056101330e+00  9.7286795925010994e-01  1.1112670653799455e+00  0.0000000000000000e+00  1.6461628490838431e-01  7.9080056063408544e-01  1.1977366955041082e+00  1.7992394042641768e+00  5.2708918472276822e-01  6.8811213669767846e-01  5.4063284220962415e-01  2.3673922905483566e+00  1.3630065140753393e+00  2.6173997340501907e+00  2.7099048106054049e+00  2.5758511896424898e+00  2.1098965476027027e+00  3.9456288347421442e-01  9.3475780295045752e-01  0.0000000000000000e+00  9.7311083026042999e-01  9.4352149190926216e-01  1.8194982331207949e+00  2.5038745451394986e+00  2.6017968159327913e+00  9.1702937920699346e-01  1.1588217307468098e+00  1.5558262428816729e+00  1.6748758640466290e+00  1.4152095632718418e+00  2.2703031450857485e+00  1.7846066603387571e+00  1.5623341389402907e+00  2.0618255265658472e+00  1.4215101968614554e+00  2.4776650489896390e+00  1.4051045917792149e+00  7.9494204633849896e-01  3.3938210010154540e-01  1.9253470710026244e+00  5.7391103074620764e-01  3.0567409557298166e+00  2.4653928512673331e+00  2.4886448122274842e+00  6.7129751979304764e-01  7.4671361306853290e-01  6.3618693852257513e-01  1.0750836067850407e+00  2.0451952631250654e+00  1.2779872700587100e+00  1.0698812708543004e+00  2.5345642316493544e+00  8.5037896765337384e-01  1.7256657279331007e+00  1.9701576387526718e+00  1.5863961206464725e+00  2.2227953505173770e+00  1.8654841519847876e-01  0.0000000000000000e+00  1.8830674374031747e-01  0.0000000000000000e+00  4.6393638633476464e-01  2.3224547827571156e+00  9.6203920456697545e-01  1.7567700739209318e+00  1.5917423601214069e+00  1.7737447634391312e+00  1.8841935493034223e+00  1.7763956154268179e+00  2.5379749623520151e+00  7.5232576562716191e-01  1.3114945823440187e+00  2.1945179155810339e+00  2.3942539833305458e+00  2.3917101643682988e+00  2.3057224287789300e+00  1.8324187412737856e+00  1.8993093603074986e+00  1.1434544633425183e+00  9.2626543471223166e-01  1.3301642366524871e+00  7.6566943538248267e-01  2.8971386692103929e+00  2.4840554297828357e+00  5.7859489555765287e-01  9.0457739720818775e-01  2.6035707529587709e-01  1.1958869660636675e+00  2.9036285672859390e+00  2.7729111080415598e+00  2.5259142914373296e+00  2.2684343443102555e+00  1.7832166857835683e+00  1.5090230520611021e+00  1.5690460725827451e+00  1.3410359490152697e+00  7.8747007239202305e-01  0.0000000000000000e+00  1.1424559405270247e+00  1.2221662309005665e+00  7.9090573314963186e-01  2.6702772487975319e+00  2.5194070371865180e+00  9.9726932398575951e-01  2.9703485647653967e+00  3.0293481871345898e+00  2.8000220417905850e+00  4.8062949793400556e-01  2.1668997370432574e+00  1.4419238909446006e-01  9.8321851904550106e-01  1.0359537735237709e+00  1.1272326437122180e+00  1.0978090197712869e+00  2.6942859249895690e-01  0.0000000000000000e+00  1.8231736136438076e-01  3.7178275498425439e-01  2.2914910816594039e-01  3.6040074674899247e-01  4.3055694476682682e-01  1.4808059550767114e-01  1.7484823520937640e-01  1.3911675538406592e+00  4.7016022029537474e-01  4.2761322217591480e-01  1.5430043832099019e+00  2.6002837365733500e+00  2.5273266578480578e+00  2.0239166131396571e+00  2.7693687484885352e+00  1.1746871273033199e+00  2.2910088184959885e+00  2.0478547295315215e+00  1.6064525148934421e+00  1.5615363370708077e+00  2.5248082707892903e+00  2.6295549882921025e+00  2.5118897560407034e+00  1.2764503391666091e+00  1.5413267562741604e+00  1.5348161349088572e+00  1.3677350484459723e+00  2.3772903844440147e+00  4.4826009507097420e-01  2.0321464388775037e+00  2.4990548862779636e+00  1.8656864539118327e+00  2.3435098029660995e+00  2.0335009401545228e+00  1.9718635688977746e+00  2.4152131712393246e+00  2.6985057403470480e+00  2.7291056168778751e+00  2.7304244382595320e+00  2.6336093197760175e+00  1.9009266843590109e+00  1.9736033207582699e+00  2.5251347486538980e+00  3.1785033781808267e+00  3.0652775429276584e+00  1.8543220169831833e+00  0.0000000000000000e+00  1.5559243662048280e-01  1.4017080235424286e+00  1.2365414017914955e+00  1.3909488649702593e+00  3.1898394730072956e+00  3.0764231655985941e+00  2.4284180856665056e+00  7.5258137799294156e-01  2.0913297348985354e+00  2.1533935662298234e+00  2.2217737509377766e+00  2.3209332917247156e+00  2.3055896387557615e+00  2.3552085600211816e+00  2.0352672208743443e+00  2.7061395047860093e+00  2.5088957588360348e+00  2.5254845911932087e+00  2.4892024111203050e+00  1.3763894873180353e+00  1.0727975954626585e+00  1.4219816983258928e+00  2.2531613620148772e+00  2.2817518809990154e+00  2.2600861208753225e+00  2.9092769277412058e+00  1.5454402233772269e+00  2.1605001770373673e+00  7.7667115555083532e-01  3.0458487490593313e+00  2.8989275431762871e+00  2.6234403871225958e+00  1.1638609550021044e+00  1.2086462373418492e+00  2.4852170728542022e+00  2.4840261718115406e+00  2.6508829613792004e+00  9.7897546745026864e-01  1.8771764755115357e+00  9.4571918348333295e-01  2.4793726196531436e+00  2.4287046934226075e+00  2.4191013462627544e+00  2.4444457184000776e+00  9.6389526335600295e-01  7.0579213951682840e-01  3.3501685111483531e-01  1.6909600176776338e+00  0.0000000000000000e+00  0.0000000000000000e+00  3.1452981351083351e+00  1.6012699541525575e+00  1.0959891430928910e+00  1.0961244003342034e+00  0.0000000000000000e+00  0.0000000000000000e+00  2.5356606158497814e+00  1.9793332999946872e-01  2.5081324013504158e-01  1.0385014717241101e+00  7.2769188311327027e-01  1.5870117538579400e+00  2.5936715183563397e+00  9.9366382358543670e-01  2.5822519428000956e+00  5.7460560838009422e-01  2.4330910091103166e+00  2.9134092634110274e+00  2.7387070232834976e+00  2.8708219158900268e+00  3.1343613965428077e+00  2.8596034673103685e+00  2.2101686824621671e+00  4.6926895889367159e-01  9.1212967980387794e-01  1.1056794835037225e+00  1.1105886461632781e+00  1.3978746957283010e+00  0.0000000000000000e+00  1.5637317924079552e+00  0.0000000000000000e+00  8.0434005510251461e-01  7.6491981931057029e-01  8.2287235555149840e-01  0.0000000000000000e+00  3.2748006530453905e-01  6.0212691880304414e-01  6.4178025168628827e-01  7.0485786307333953e-01  1.2805525001332108e+00  2.9243808748079609e+00  2.7492423994673403e+00  2.0458059414386511e+00  1.7288704788153292e-01  1.0115433703239649e+00  5.0950791995481315e-01  2.4064504571523511e+00  2.1353517572481220e+00  5.6761109083947325e-01  8.0755087459677777e-01  2.7407464179447123e+00  1.9384493400795122e+00  1.4794921554545946e+00  3.1945109983877690e-01  1.8820758146646355e+00  2.7080382655456670e+00  2.4412988873585886e-01  1.6973644503929266e+00  2.5607671644593930e+00  2.1734784436437682e+00  2.3107392060969114e+00  2.2660299237416943e+00  1.6243594548946219e+00  1.8887147554153463e+00  2.1894664497543896e+00  8.1681844039856388e-01  9.3476691018793079e-01  2.1565822252468170e+00  2.2521120907694283e+00  1.1576620769450927e+00  2.4693609274706452e+00  2.2306135187376048e+00  2.4379492664660938e+00  2.3144342112902372e+00  2.1288632834376009e+00  1.2148581579132229e+00  8.9063389915437652e-01  2.2784896223591988e+00  2.5784509598813301e+00  2.7281813253241580e+00  2.2747327440535883e+00  1.3552442720740443e+00  2.4983477058117125e+00  1.1579295060296444e+00  1.9118491188225679e+00  2.4530532950024466e+00  1.9803726818390313e+00  1.7760097605750751e+00  3.3694057122126081e-01  7.6094312721405699e-01  1.9835325981984167e+00  1.7707320664229045e+00  2.8618791868179851e+00  2.7507022505202556e+00  6.7363132424659433e-01  2.4679625124761464e+00  2.4473500151520082e+00  2.4330818913305450e+00  1.6700329643545790e+00  1.2619423448428042e+00  2.8578647504372880e+00  2.6603042815951525e+00  1.3488303608058552e+00  1.7858860545088706e-01  1.6775779019891381e+00  2.6259300967795149e+00  2.6617098011680631e+00  2.5400977691848903e+00  2.4218801908982321e+00  4.9611628858308393e-01  2.8818972704619958e+00  2.8022447282641010e+00  6.9434923640775548e-01  2.6746391188287748e+00  2.2549553097859460e+00  2.8005135341699412e+00  2.9862598256424109e+00  2.8644840797301416e+00  2.6885943317954859e+00  3.2045870217334194e-01  1.4169330320981881e+00  1.9756163706573009e+00  1.3804664455399723e-01  9.3033163308669986e-01  2.6620188505196571e+00  2.6003405456995856e+00  1.8393386860310446e+00  2.1303130029234780e+00  2.1970566226233240e-01  2.0031793155438997e+00  2.3574637236665930e+00  2.2517222311329648e+00  1.3742815052738242e+00  1.9921257321326207e+00  6.5869446224063044e-01  2.8410145036506842e+00  1.3292565608850502e+00  3.8883174024276856e-01  8.6349764711430854e-01  4.5548879366436446e-01  9.1204107054068750e-01  1.0518518189155972e+00  2.8234763615854885e+00  1.2369878700711523e+00  5.6581231049318514e-01  1.1743253344548858e+00  2.4485800900047696e+00  2.2430874860653507e+00  2.7846258740239356e+00  2.5048196786049424e+00  2.6109742582843660e+00  2.0449340207252211e+00  1.2992002613397586e+00  2.3827599751467403e+00  4.2761375220170822e-01  2.4911067562416376e+00  2.0495802122580735e+00  1.1600401166908503e-01  1.0128233308266872e-01  2.4976823209206609e+00  5.6031123267344407e-01  7.2593420174700318e-01  2.2189670706761428e+00  2.5044682223645882e+00  5.6027339666071307e-01  2.9872192970388194e+00  1.4994311104994396e+00  9.8432976658524907e-01  2.4869989721981622e+00  2.5328041417507112e+00  2.3521702026334252e+00  2.2015154824889382e+00  1.1510248012239134e-01  2.3916509050837104e-01  9.8641824834811251e-02  2.4421900622913357e+00  2.3342226403306574e+00  2.4627366925613750e+00  2.0838869625291352e+00  2.5091240850055718e+00  2.5428883896987924e+00  2.6257496963417903e+00  1.8050368980525922e+00  1.7483616240715880e+00  1.6675962225838270e+00  1.3436178409747496e-01  1.4833309991637116e+00  1.0675593295092611e+00  1.3460966806157526e+00  2.3956878749728117e+00  2.2845749130914990e+00  1.0690829312350718e+00  1.1485913218687880e+00  1.8773571503381037e+00  4.5974603590311164e-01  1.5990825315579877e+00  2.0779661428841449e+00  2.7384988663965699e+00  2.5058323415741128e+00  2.9645465905787498e+00  6.0579950164610485e-01  2.5001156597542473e+00  2.3704448028049083e+00  2.5925703071658237e+00  2.8004989112821219e+00  2.9241990693104021e+00  1.5115062714890570e+00  3.5268733270348129e-01  1.6284395280538071e+00  1.0962915458393927e+00  2.1581094227374966e+00  1.4286060622279290e-01  1.0504176412582238e+00  1.7034404068526960e+00  5.5971472828188384e-01  2.5155194947737867e+00  1.1528964771518830e+00  2.5271695202052729e+00  1.3728499694689120e+00  1.6901000097657197e+00  1.1052426985911384e-01  3.4904760345475511e-01  2.2689902724552913e+00  2.4869960043311186e+00  2.5602989450112443e+00  1.7834766476368569e+00  1.7599175638546789e+00  1.5159563834996850e+00  2.8143968994995787e+00  2.4014055595651342e+00  3.0746879331322665e+00  1.1789860733234794e+00  1.2510664033285703e+00  1.4353622286511181e+00  3.0755772615235801e+00  2.4014075050481023e+00  1.6466296448457707e+00  2.7997498151145193e+00  1.1081009905339805e+00  4.6786692019526410e-01  2.6955744585690555e-01  1.2622703742959298e+00  2.5985279101533132e-01  3.9364713448851019e-01  1.0093881922482753e-01  5.7613066746109864e-01  1.3613779872684106e+00  7.0059050829441261e-01  1.9882131716337317e+00  1.6575813988720429e+00  8.8281447123008994e-01  3.0182419577961559e+00  3.0650338336697871e+00  1.0190671098234714e+00  2.8280856429746200e+00  1.8950111581229248e+00  1.7263258130720520e+00  1.0412480210293893e+00  9.2495073720114807e-01  7.9202105405931478e-01  3.0920690005346261e+00  1.3214155243836008e+00  6.8282922018127123e-01  2.5785452385096543e+00  2.4602133070387024e+00  1.4912261507482332e+00  1.9584654457403605e-01  1.5266076997160669e+00  2.2064556014260281e+00  1.9393101749275596e+00  3.2292360324998642e-01  2.1468156469826227e+00  2.4299362629531238e+00  2.7820725886054476e-01  3.1671270829579595e-01  8.7631063539345666e-01  1.6561603389351587e+00  1.7407687594988521e+00  2.1456489914327284e+00  2.0604366575198467e+00  1.9445772214891490e+00  1.6736936462207257e+00  8.2819050121728910e-01  2.9893149982822536e+00  2.3280206934238841e+00  2.3478729967522134e+00  1.4592764102022784e+00  2.5937634069201652e+00  1.9409427619692621e+00  2.1782667001333711e+00  1.9494833982739661e+00  2.6155816034084656e+00  1.1711203553447644e+00  9.9409520011832120e-01  2.5218703357665664e+00  1.1913150484136778e-01  9.2192705456448129e-02  8.3317491142486610e-01  2.2091197405108161e+00  6.0660399598787662e-01  2.4844890017562937e+00  2.9584582064696066e+00  2.1071806364689092e+00  1.5902984326995575e+00  2.4518218933560982e+00  2.4167978664299996e+00  1.3768941212254959e+00  1.1565721593723191e+00  4.7950680557295228e-01  1.0218079539257325e+00  1.1987927178497342e-01  2.1945650792742386e-01  2.2758389730460631e+00  2.0171090126870377e+00  9.9943532257056977e-01  2.4449606436508504e+00  1.9723154188607466e+00  1.9790107279155436e+00  2.0992368967716115e+00  1.8490124430958479e-01  2.2598242589474080e+00  1.5254498755773145e+00  2.7446853362093941e+00  5.5085578434539828e-01  1.2092841731885968e+00  2.8757261569457943e-01  1.8963010459048886e+00  1.5438919655336372e+00  6.6548716758372572e-01  3.6966680586044198e-01  5.0875448012713942e-01  4.4952823285997207e-01  1.4958469056128429e+00  2.4706585358441737e+00  2.3417446155203949e+00  7.2910564332165650e-01  1.3975443430965464e+00  2.7563580604800597e+00  1.4451460566453753e+00  8.7785672067516596e-01  1.0286273793957363e+00  8.7528263506175075e-01  9.1188525162687628e-01  2.5138628227437847e+00  9.3985628351952477e-01  7.2601486831985329e-01  2.6238446653799472e+00  5.6382003623265331e-01  2.4014183844311972e+00  2.5152997081521411e+00  1.1477846105409779e+00  3.3499571624947883e-01  1.7628568741569313e+00  2.8948716450379410e+00  2.1459809308213322e+00  1.9301384456739550e+00  2.3813698468753941e+00  2.3303457134418473e+00  2.5627760753776014e+00  2.4417458928819502e+00  2.9418437278276128e+00  3.0645751758770161e+00  7.0086984568344202e-01  1.7709176600806853e+00  1.1053642554645855e+00  1.1789914912691693e-01  2.5031022949921331e+00  2.3532564582555771e-01  7.6699285186420219e-01  7.7101055425408482e-01  1.7880996371876134e+00  2.5899883250360221e+00  2.6401923335534039e+00  7.5420760189493585e-01  2.6371991846502296e+00  1.7355493288823045e+00  1.1110131191123804e+00  2.6577489976047173e+00  2.7078789957965568e+00  2.4805179272267659e+00  1.2432268149128003e