# vtk DataFile Version 2.0
step 0 time 0.000000e+00 normalized time 0.000000e+00, generated by simple.py
ASCII
DATASET UNSTRUCTURED_GRID

POINTS 1331 float
5.000000e-01 -5.000000e-01 5.000000e-01
5.000000e-01 -5.000000e-01 -5.000000e-01
5.000000e-01 -5.000000e-01 4.000000e-01
5.000000e-01 -5.000000e-01 3.000000e-01
5.000000e-01 -5.000000e-01 2.000000e-01
5.000000e-01 -5.000000e-01 1.000000e-01
5.000000e-01 -5.000000e-01 0.000000e+00
5.000000e-01 -5.000000e-01 -1.000000e-01
5.000000e-01 -5.000000e-01 -2.000000e-01
5.000000e-01 -5.000000e-01 -3.000000e-01
5.000000e-01 -5.000000e-01 -4.000000e-01
5.000000e-01 5.000000e-01 -5.000000e-01
5.000000e-01 4.000000e-01 -5.000000e-01
5.000000e-01 3.000000e-01 -5.000000e-01
5.000000e-01 2.000000e-01 -5.000000e-01
5.000000e-01 1.000000e-01 -5.000000e-01
5.000000e-01 0.000000e+00 -5.000000e-01
5.000000e-01 -1.000000e-01 -5.000000e-01
5.000000e-01 -2.000000e-01 -5.000000e-01
5.000000e-01 -3.000000e-01 -5.000000e-01
5.000000e-01 -4.000000e-01 -5.000000e-01
5.000000e-01 5.000000e-01 5.000000e-01
5.000000e-01 5.000000e-01 4.000000e-01
5.000000e-01 5.000000e-01 3.000000e-01
5.000000e-01 5.000000e-01 2.000000e-01
5.000000e-01 5.000000e-01 1.000000e-01
5.000000e-01 5.000000e-01 0.000000e+00
5.000000e-01 5.000000e-01 -1.000000e-01
5.000000e-01 5.000000e-01 -2.000000e-01
5.000000e-01 5.000000e-01 -3.000000e-01
5.000000e-01 5.000000e-01 -4.000000e-01
5.000000e-01 -4.000000e-01 5.000000e-01
5.000000e-01 -3.000000e-01 5.000000e-01
5.000000e-01 -2.000000e-01 5.000000e-01
5.000000e-01 -1.000000e-01 5.000000e-01
5.000000e-01 0.000000e+00 5.000000e-01
5.000000e-01 1.000000e-01 5.000000e-01
5.000000e-01 2.000000e-01 5.000000e-01
5.000000e-01 3.000000e-01 5.000000e-01
5.000000e-01 4.000000e-01 5.000000e-01
5.000000e-01 4.000000e-01 4.000000e-01
5.000000e-01 4.000000e-01 3.000000e-01
5.000000e-01 4.000000e-01 2.000000e-01
5.000000e-01 4.000000e-01 1.000000e-01
5.000000e-01 4.000000e-01 0.000000e+00
5.000000e-01 4.000000e-01 -1.000000e-01
5.000000e-01 4.000000e-01 -2.000000e-01
5.000000e-01 4.000000e-01 -3.000000e-01
5.000000e-01 4.000000e-01 -4.000000e-01
5.000000e-01 3.000000e-01 4.000000e-01
5.000000e-01 3.000000e-01 3.000000e-01
5.000000e-01 3.000000e-01 2.000000e-01
5.000000e-01 3.000000e-01 1.000000e-01
5.000000e-01 3.000000e-01 0.000000e+00
5.000000e-01 3.000000e-01 -1.000000e-01
5.000000e-01 3.000000e-01 -2.000000e-01
5.000000e-01 3.000000e-01 -3.000000e-01
5.000000e-01 3.000000e-01 -4.000000e-01
5.000000e-01 2.000000e-01 4.000000e-01
5.000000e-01 2.000000e-01 3.000000e-01
5.000000e-01 2.000000e-01 2.000000e-01
5.000000e-01 2.000000e-01 1.000000e-01
5.000000e-01 2.000000e-01 0.000000e+00
5.000000e-01 2.000000e-01 -1.000000e-01
5.000000e-01 2.000000e-01 -2.000000e-01
5.000000e-01 2.000000e-01 -3.000000e-01
5.000000e-01 2.000000e-01 -4.000000e-01
5.000000e-01 1.000000e-01 4.000000e-01
5.000000e-01 1.000000e-01 3.000000e-01
5.000000e-01 1.000000e-01 2.000000e-01
5.000000e-01 1.000000e-01 1.000000e-01
5.000000e-01 1.000000e-01 0.000000e+00
5.000000e-01 1.000000e-01 -1.000000e-01
5.000000e-01 1.000000e-01 -2.000000e-01
5.000000e-01 1.000000e-01 -3.000000e-01
5.000000e-01 1.000000e-01 -4.000000e-01
5.000000e-01 0.000000e+00 4.000000e-01
5.000000e-01 0.000000e+00 3.000000e-01
5.000000e-01 0.000000e+00 2.000000e-01
5.000000e-01 0.000000e+00 1.000000e-01
5.000000e-01 0.000000e+00 0.000000e+00
5.000000e-01 0.000000e+00 -1.000000e-01
5.000000e-01 0.000000e+00 -2.000000e-01
5.000000e-01 0.000000e+00 -3.000000e-01
5.000000e-01 0.000000e+00 -4.000000e-01
5.000000e-01 -1.000000e-01 4.000000e-01
5.000000e-01 -1.000000e-01 3.000000e-01
5.000000e-01 -1.000000e-01 2.000000e-01
5.000000e-01 -1.000000e-01 1.000000e-01
5.000000e-01 -1.000000e-01 0.000000e+00
5.000000e-01 -1.000000e-01 -1.000000e-01
5.000000e-01 -1.000000e-01 -2.000000e-01
5.000000e-01 -1.000000e-01 -3.000000e-01
5.000000e-01 -1.000000e-01 -4.000000e-01
5.000000e-01 -2.000000e-01 4.000000e-01
5.000000e-01 -2.000000e-01 3.000000e-01
5.000000e-01 -2.000000e-01 2.000000e-01
5.000000e-01 -2.000000e-01 1.000000e-01
5.000000e-01 -2.000000e-01 0.000000e+00
5.000000e-01 -2.000000e-01 -1.000000e-01
5.000000e-01 -2.000000e-01 -2.000000e-01
5.000000e-01 -2.000000e-01 -3.000000e-01
5.000000e-01 -2.000000e-01 -4.000000e-01
5.000000e-01 -3.000000e-01 4.000000e-01
5.000000e-01 -3.000000e-01 3.000000e-01
5.000000e-01 -3.000000e-01 2.000000e-01
5.000000e-01 -3.000000e-01 1.000000e-01
5.000000e-01 -3.000000e-01 0.000000e+00
5.000000e-01 -3.000000e-01 -1.000000e-01
5.000000e-01 -3.000000e-01 -2.000000e-01
5.000000e-01 -3.000000e-01 -3.000000e-01
5.000000e-01 -3.000000e-01 -4.000000e-01
5.000000e-01 -4.000000e-01 4.000000e-01
5.000000e-01 -4.000000e-01 3.000000e-01
5.000000e-01 -4.000000e-01 2.000000e-01
5.000000e-01 -4.000000e-01 1.000000e-01
5.000000e-01 -4.000000e-01 0.000000e+00
5.000000e-01 -4.000000e-01 -1.000000e-01
5.000000e-01 -4.000000e-01 -2.000000e-01
5.000000e-01 -4.000000e-01 -3.000000e-01
5.000000e-01 -4.000000e-01 -4.000000e-01
-5.000000e-01 5.000000e-01 -5.000000e-01
-4.000000e-01 5.000000e-01 -5.000000e-01
-3.000000e-01 5.000000e-01 -5.000000e-01
-2.000000e-01 5.000000e-01 -5.000000e-01
-1.000000e-01 5.000000e-01 -5.000000e-01
0.000000e+00 5.000000e-01 -5.000000e-01
1.000000e-01 5.000000e-01 -5.000000e-01
2.000000e-01 5.000000e-01 -5.000000e-01
3.000000e-01 5.000000e-01 -5.000000e-01
4.000000e-01 5.000000e-01 -5.000000e-01
-5.000000e-01 5.000000e-01 5.000000e-01
-5.000000e-01 5.000000e-01 4.000000e-01
-5.000000e-01 5.000000e-01 3.000000e-01
-5.000000e-01 5.000000e-01 2.000000e-01
-5.000000e-01 5.000000e-01 1.000000e-01
-5.000000e-01 5.000000e-01 0.000000e+00
-5.000000e-01 5.000000e-01 -1.000000e-01
-5.000000e-01 5.000000e-01 -2.000000e-01
-5.000000e-01 5.000000e-01 -3.000000e-01
-5.000000e-01 5.000000e-01 -4.000000e-01
4.000000e-01 5.000000e-01 5.000000e-01
3.000000e-01 5.000000e-01 5.000000e-01
2.000000e-01 5.000000e-01 5.000000e-01
1.000000e-01 5.000000e-01 5.000000e-01
0.000000e+00 5.000000e-01 5.000000e-01
-1.000000e-01 5.000000e-01 5.000000e-01
-2.000000e-01 5.000000e-01 5.000000e-01
-3.000000e-01 5.000000e-01 5.000000e-01
-4.000000e-01 5.000000e-01 5.000000e-01
-4.000000e-01 5.000000e-01 4.000000e-01
-4.000000e-01 5.000000e-01 3.000000e-01
-4.000000e-01 5.000000e-01 2.000000e-01
-4.000000e-01 5.000000e-01 1.000000e-01
-4.000000e-01 5.000000e-01 0.000000e+00
-4.000000e-01 5.000000e-01 -1.000000e-01
-4.000000e-01 5.000000e-01 -2.000000e-01
-4.000000e-01 5.000000e-01 -3.000000e-01
-4.000000e-01 5.000000e-01 -4.000000e-01
-3.000000e-01 5.000000e-01 4.000000e-01
-3.000000e-01 5.000000e-01 3.000000e-01
-3.000000e-01 5.000000e-01 2.000000e-01
-3.000000e-01 5.000000e-01 1.000000e-01
-3.000000e-01 5.000000e-01 0.000000e+00
-3.000000e-01 5.000000e-01 -1.000000e-01
-3.000000e-01 5.000000e-01 -2.000000e-01
-3.000000e-01 5.000000e-01 -3.000000e-01
-3.000000e-01 5.000000e-01 -4.000000e-01
-2.000000e-01 5.000000e-01 4.000000e-01
-2.000000e-01 5.000000e-01 3.000000e-01
-2.000000e-01 5.000000e-01 2.000000e-01
-2.000000e-01 5.000000e-01 1.000000e-01
-2.000000e-01 5.000000e-01 0.000000e+00
-2.000000e-01 5.000000e-01 -1.000000e-01
-2.000000e-01 5.000000e-01 -2.000000e-01
-2.000000e-01 5.000000e-01 -3.000000e-01
-2.000000e-01 5.000000e-01 -4.000000e-01
-1.000000e-01 5.000000e-01 4.000000e-01
-1.000000e-01 5.000000e-01 3.000000e-01
-1.000000e-01 5.000000e-01 2.000000e-01
-1.000000e-01 5.000000e-01 1.000000e-01
-1.000000e-01 5.000000e-01 0.000000e+00
-1.000000e-01 5.000000e-01 -1.000000e-01
-1.000000e-01 5.000000e-01 -2.000000e-01
-1.000000e-01 5.000000e-01 -3.000000e-01
-1.000000e-01 5.000000e-01 -4.000000e-01
0.000000e+00 5.000000e-01 4.000000e-01
0.000000e+00 5.000000e-01 3.000000e-01
0.000000e+00 5.000000e-01 2.000000e-01
0.000000e+00 5.000000e-01 1.000000e-01
0.000000e+00 5.000000e-01 0.000000e+00
0.000000e+00 5.000000e-01 -1.000000e-01
0.000000e+00 5.000000e-01 -2.000000e-01
0.000000e+00 5.000000e-01 -3.000000e-01
0.000000e+00 5.000000e-01 -4.000000e-01
1.000000e-01 5.000000e-01 4.000000e-01
1.000000e-01 5.000000e-01 3.000000e-01
1.000000e-01 5.000000e-01 2.000000e-01
1.000000e-01 5.000000e-01 1.000000e-01
1.000000e-01 5.000000e-01 0.000000e+00
1.000000e-01 5.000000e-01 -1.000000e-01
1.000000e-01 5.000000e-01 -2.000000e-01
1.000000e-01 5.000000e-01 -3.000000e-01
1.000000e-01 5.000000e-01 -4.000000e-01
2.000000e-01 5.000000e-01 4.000000e-01
2.000000e-01 5.000000e-01 3.000000e-01
2.000000e-01 5.000000e-01 2.000000e-01
2.000000e-01 5.000000e-01 1.000000e-01
2.000000e-01 5.000000e-01 0.000000e+00
2.000000e-01 5.000000e-01 -1.000000e-01
2.000000e-01 5.000000e-01 -2.000000e-01
2.000000e-01 5.000000e-01 -3.000000e-01
2.000000e-01 5.000000e-01 -4.000000e-01
3.000000e-01 5.000000e-01 4.000000e-01
3.000000e-01 5.000000e-01 3.000000e-01
3.000000e-01 5.000000e-01 2.000000e-01
3.000000e-01 5.000000e-01 1.000000e-01
3.000000e-01 5.000000e-01 0.000000e+00
3.000000e-01 5.000000e-01 -1.000000e-01
3.000000e-01 5.000000e-01 -2.000000e-01
3.000000e-01 5.000000e-01 -3.000000e-01
3.000000e-01 5.000000e-01 -4.000000e-01
4.000000e-01 5.000000e-01 4.000000e-01
4.000000e-01 5.000000e-01 3.000000e-01
4.000000e-01 5.000000e-01 2.000000e-01
4.000000e-01 5.000000e-01 1.000000e-01
4.000000e-01 5.000000e-01 0.000000e+00
4.000000e-01 5.000000e-01 -1.000000e-01
4.000000e-01 5.000000e-01 -2.000000e-01
4.000000e-01 5.000000e-01 -3.000000e-01
4.000000e-01 5.000000e-01 -4.000000e-01
-5.000000e-01 -5.000000e-01 -5.000000e-01
-5.000000e-01 -4.000000e-01 -5.000000e-01
-5.000000e-01 -3.000000e-01 -5.000000e-01
-5.000000e-01 -2.000000e-01 -5.000000e-01
-5.000000e-01 -1.000000e-01 -5.000000e-01
-5.000000e-01 0.000000e+00 -5.000000e-01
-5.000000e-01 1.000000e-01 -5.000000e-01
-5.000000e-01 2.000000e-01 -5.000000e-01
-5.000000e-01 3.000000e-01 -5.000000e-01
-5.000000e-01 4.000000e-01 -5.000000e-01
-5.000000e-01 -5.000000e-01 5.000000e-01
-5.000000e-01 -5.000000e-01 4.000000e-01
-5.000000e-01 -5.000000e-01 3.000000e-01
-5.000000e-01 -5.000000e-01 2.000000e-01
-5.000000e-01 -5.000000e-01 1.000000e-01
[...]
POINT_DATA 1331

SCALARS node_groups int 1
LOOKUP_TABLE default
0
0
0
0
0
0
0
0
0
0
0
0
0
0
0
0
0
0
0
0
0
0
0
0
0
0
0
0
0
0
0
0
0
0
0
0
0
0
0
0
0
0
0
0
0
0
0
0
0
0
0
0
0
0
0
0
0
0
0
0
0
0
0
0
0
0
0
0
0
0
0
0
0
0
0
0
0
0
0
0
0
0
0
0
0
0
0
0
0
0
0
0
0
0
0
0
0
0
0
0
0
0
0
0
0
0
0
0
0
0
0
0
0
0
0
0
0
0
0
0
0
0
0
0
0
0
0
0
0
0
0
0
0
0
0
0
0
0
0
0
0
0
0
0
0
0
0
0
0
0
0
0
0
0
0
0
0
0
0
0
0
0
0
0
0
0
0
0
0
0
0
0
0
0
0
0
0
0
0
0
0
0
0
0
0
0
0
0
0
0
0
0
0
0
0
0
0
0
0
0
0
0
0
0
0
0
0
0
0
0
0
0
0
0
0
0
0
0
0
0
0
0
0
0
0
0
0
0
0
0
0
0
0
0
0
0
0
0
0
0
0
0
0
0
0
0
0
0
0
0
0
0
0
0
0
0
0
0
0
0
0
0
0
0
0
0
0
0
0
0
0
0
0
0
0
0
0
0
0
0
0
0
0
0
0
0
0
0
0
0
0
0
0
0
0
0
0
0
0
0
0
0
0
0
0
0
0
0
0
0
0
0
0
0
0
0
0
0
0
0
0
0
0
0
0
0
0
0
0
0
0
0
0
0
0
0
0
0
0
0
0
0
0
0
0
0
0
0
0
0
0
0
0
0
0
0
0
0
0
0
0
0
0
0
0
0
0
0
0
0
0
0
0
0
0
0
0
0
0
0
0
0
0
0
0
0
0
0
0
0
0
0
0
0
0
0
0
0
0
0
0
0
0
0
0
0
0
0
0
0
0
0
0
0
0
0
0
0
0
0
0
0
0
0
0
0
0
0
0
0
0
0
0
0
0
0
0
0
0
0
0
0
0
0
0
0
0
0
0
0
0
0
0
0
0
0
0
0
0
0
0
0
0
0
0
0
0
0
0
0
0
0
0
0
0
0
0
0
0
0
0
0
0
0
0
0
0
0
0
0
0
0
0
0
0
0
0
0
0
0
0
0
0
0
0
0
0
0
0
0
0
0
0
0
0
0
0
0
0
0
0
0
0
0
0
0
0
0
0
0
0
0
0
0
0
0
0
0
0
0
0
0
0
0
0
0
0
0
0
0
0
0
0
0
0
0
0
0
0
0
0
0
0
0
0
0
0
0
0
0
0
0
0
0
0
0
0
0
0
0
0
0
0
0
0
0
0
0
0
0
0
0
0
0
0
0
0
0
0
0
0
0
0
0
0
0
0
0
0
0
0
0
0
0
0
0
0
0
0
0
0
0
0
0
0
0
0
0
0
0
0
0
0
0
0
0
0
0
0
0
0
0
0
0
0
0
0
0
0
0
0
0
0
0
0
0
0
0
0
0
0
0
0
0
0
0
0
0
0
0
0
0
0
0
0
0
0
0
0
0
0
0
0
0
0
0
0
0
0
0
0
0
0
0
0
0
0
0
0
0
0
0
0
0
0
0
0
0
0
0
0
0
0
0
0
0
0
0
0
0
0
0
0
0
0
0
0
0
0
0
0
0
0
0
0
0
0
0
0
0
0
0
0
0
0
0
0
0
0
0
0
0
0
0
0
0
0
0
0
0
0
0
0
0
0
0
0
0
0
0
0
0
0
0
0
0
0
0
0
0
0
0
0
0
0
0
0
0
0
0
0
0
0
0
0
0
0
0
0
0
0
0
0
0
0
0
0
0
0
0
0
0
0
0
0
0
0
0
0
0
0
0
0
0
0
0
0
0
0
0
0
0
0
0
0
0
0
0
0
0
0
0
0
0
0
0
0
0
0
0
0
0
0
0
0
0
0
0
0
0
0
0
0
0
0
0
0
0
0
0
0
0
0
0
0
0
0
0
0
0
0
0
0
0
0
0
0
0
0
0
0
0
0
0
0
0
0
0
0
0
0
0
0
0
0
0
0
0
0
0
0
0
0
0
0
0
0
0
0
0
0
0
0
0
0
0
0
0
0
0
0
0
0
0
0
0
0
0
0
0
0
0
0
0
0
0
0
0
0
0
0
0
0
0
0
0
0
0
0
0
0
0
0
0
0
0
0
0
0
0
0
0
0
0
0
0
0
0
0
0
0
0
0
0
0
0
0
0
0
0
0
0
0
0
0
0
0
0
0
0
0
0
0
0
0
0
0
0
0
0
0
0
0
0
0
0
0
0
0
0
0
0
0
0
0
0
0
0
0
0
0
0
0
0
0
0
0
0
0
0
0
0
0
0
0
0
0
0
0
0
0
0
0
0
0
0
0
0
0
0
0
0
0
0
0
0
0
0
0
0
0
0
0
0
0
0
0
0
0
0
0
0
0
0
0
0
0
0
0
0
0
0
0
0
0
0
0
0
0
0
0
0
0
0
0
0
0
0
0
0
0
0
0
0
0
0
0
0
0
0
0
0
0
0
0
0
0
0
0
0
0
0
0
0
0
0
0
0
0
0
0
0
0
0
0
0
0
0
0
0
0
0
0
0
0
0
0
0
0
0
0
0
0
0
0
0
0
0
0
0
0
0
0
0
0
0
0
0
0
0
0
0
0
0
0
0
0
0
0
0
0
0
0
0
0
0
0
0
0
0
0
0
0
0
0
0
0
0
0
0
0
0
0
0
0
0
0
0
0
0
0
0
0
0
0
0
0
0
0
0
0
0
0
0
0
0
0
0
0
0
0
0
0
0
0
0
0
0
0
0
0
0
0
0
0
0
0
0
0
0
0
0
0
0
0
0
0
0
0
0
0
0
0
0
0
0
0
0
0
0
0
0
0
0
0
0
0
0
0
0
0
0
0
0
0
0
0
0
0
0
0
0
0
0
0
0
0
0
0
0
0
0
0
0
0
0
0
0
0
0
0
0
0
0
0
0
0
0
0
0
0

SCALARS T float 1
LOOKUP_TABLE default
1.000000e+00
-1.000000e+00
-3.000000e+00
-3.000000e+00
-3.000000e+00
-3.000000e+00
-3.000000e+00
-3.000000e+00
-3.000000e+00
-3.000000e+00
-3.000000e+00
-1.000000e+00
-1.000000e+00
-1.000000e+00
-1.000000e+00
-1.000000e+00
-1.000000e+00
-1.000000e+00
-1.000000e+00
-1.000000e+00
-1.000000e+00
1.000000e+00
-3.000000e+00
-3.000000e+00
-3.000000e+00
-3.000000e+00
-3.000000e+00
-3.000000e+00
-3.000000e+00
-3.000000e+00
-3.000000e+00
1.000000e+00
1.000000e+00
1.000000e+00
1.000000e+00
1.000000e+00
1.000000e+00
1.000000e+00
1.000000e+00
1.000000e+00
-3.000000e+00
-3.000000e+00
-3.000000e+00
-3.000000e+00
-3.000000e+00
-3.000000e+00
-3.000000e+00
-3.000000e+00
-3.000000e+00
-3.000000e+00
-3.000000e+00
-3.000000e+00
-3.000000e+00
-3.000000e+00
-3.000000e+00
-3.000000e+00
-3.000000e+00
-3.000000e+00
-3.000000e+00
-3.000000e+00
-3.000000e+00
-3.000000e+00
-3.000000e+00
-3.000000e+00
-3.000000e+00
-3.000000e+00
-3.000000e+00
-3.000000e+00
-3.000000e+00
-3.000000e+00
-3.000000e+00
-3.000000e+00
-3.000000e+00
-3.000000e+00
-3.000000e+00
-3.000000e+00
-3.000000e+00
-3.000000e+00
-3.000000e+00
-3.000000e+00
-3.000000e+00
-3.000000e+00
-3.000000e+00
-3.000000e+00
-3.000000e+00
-3.000000e+00
-3.000000e+00
-3.000000e+00
-3.000000e+00
-3.000000e+00
-3.000000e+00
-3.000000e+00
-3.000000e+00
-3.000000e+00
-3.000000e+00
-3.000000e+00
-3.000000e+00
-3.000000e+00
-3.000000e+00
-3.000000e+00
-3.000000e+00
-3.000000e+00
-3.000000e+00
-3.000000e+00
-3.000000e+00
-3.000000e+00
-3.000000e+00
-3.000000e+00
-3.000000e+00
-3.000000e+00
-3.000000e+00
-3.000000e+00
-3.000000e+00
-3.000000e+00
-3.000000e+00
-3.000000e+00
-3.000000e+00
-3.000000e+00
-3.000000e+00
-3.000000e+00
-3.000000e+00
2.000000e+00
-1.000000e+00
-1.000000e+00
-1.000000e+00
-1.000000e+00
-1.000000e+00
-1.000000e+00
-1.000000e+00
-1.000000e+00
-1.000000e+00
2.000000e+00
2.000000e+00
2.000000e+00
2.000000e+00
2.000000e+00
2.000000e+00
2.000000e+00
2.000000e+00
2.000000e+00
2.000000e+00
1.000000e+00
1.000000e+00
1.000000e+00
1.000000e+00
1.000000e+00
1.000000e+00
1.000000e+00
1.000000e+00
1.000000e+00
-3.000000e+00
-3.000000e+00
-3.000000e+00
-3.000000e+00
-3.000000e+00
-3.000000e+00
-3.000000e+00
-3.000000e+00
-3.000000e+00
-3.000000e+00
-3.000000e+00
-3.000000e+00
-3.000000e+00
-3.000000e+00
-3.000000e+00
-3.000000e+00
-3.000000e+00
-3.000000e+00
-3.000000e+00
-3.000000e+00
-3.000000e+00
-3.000000e+00
-3.000000e+00
-3.000000e+00
-3.000000e+00
-3.000000e+00
-3.000000e+00
-3.000000e+00
-3.000000e+00
-3.000000e+00
-3.000000e+00
-3.000000e+00
-3.000000e+00
-3.000000e+00
-3.000000e+00
-3.000000e+00
-3.000000e+00
-3.000000e+00
-3.000000e+00
-3.000000e+00
-3.000000e+00
-3.000000e+00
-3.000000e+00
-3.000000e+00
-3.000000e+00
-3.000000e+00
-3.000000e+00
-3.000000e+00
-3.000000e+00
-3.000000e+00
-3.000000e+00
-3.000000e+00
-3.000000e+00
-3.000000e+00
-3.000000e+00
-3.000000e+00
-3.000000e+00
-3.000000e+00
-3.000000e+00
-3.000000e+00
-3.000000e+00
-3.000000e+00
-3.000000e+00
-3.000000e+00
-3.000000e+00
-3.000000e+00
-3.000000e+00
-3.000000e+00
-3.000000e+00
-3.000000e+00
-3.000000e+00
-3.000000e+00
-3.000000e+00
-3.000000e+00
-3.000000e+00
-3.000000e+00
-3.000000e+00
-3.000000e+00
-3.000000e+00
-3.000000e+00
-3.000000e+00
2.000000e+00
2.000000e+00
2.000000e+00
2.000000e+00
2.000000e+00
2.000000e+00
2.000000e+00
2.000000e+00
2.000000e+00
2.000000e+00
2.000000e+00
2.000000e+00
2.000000e+00
2.000000e+00
2.000000e+00
2.000000e+00
2.000000e+00
2.000000e+00
2.000000e+00
2.000000e+00
2.000000e+00
2.000000e+00
2.000000e+00
2.000000e+00
2.000000e+00
2.000000e+00
2.000000e+00
2.000000e+00
2.000000e+00
2.000000e+00
2.000000e+00
2.000000e+00
2.000000e+00
2.000000e+00
2.000000e+00
2.000000e+00
2.000000e+00
2.000000e+00
2.000000e+00
2.000000e+00
2.000000e+00
2.000000e+00
2.000000e+00
2.000000e+00
2.000000e+00
2.000000e+00
2.000000e+00
2.000000e+00
2.000000e+00
2.000000e+00
2.000000e+00
2.000000e+00
2.000000e+00
2.000000e+00
2.000000e+00
2.000000e+00
2.000000e+00
2.000000e+00
2.000000e+00
2.000000e+00
2.000000e+00
2.000000e+00
2.000000e+00
2.000000e+00
2.000000e+00
2.000000e+00
2.000000e+00
2.000000e+00
2.000000e+00
2.000000e+00
2.000000e+00
2.000000e+00
2.000000e+00
2.000000e+00
2.000000e+00
2.000000e+00
2.000000e+00
2.000000e+00
2.000000e+00
2.000000e+00
2.000000e+00
2.000000e+00
2.000000e+00
2.000000e+00
2.000000e+00
2.000000e+00
2.000000e+00
2.000000e+00
2.000000e+00
2.000000e+00
2.000000e+00
2.000000e+00
2.000000e+00
2.000000e+00
2.000000e+00
2.000000e+00
2.000000e+00
2.000000e+00
2.000000e+00
2.000000e+00
2.000000e+00
2.000000e+00
2.000000e+00
2.000000e+00
2.000000e+00
2.000000e+00
2.000000e+00
2.000000e+00
2.000000e+00
2.000000e+00
-1.000000e+00
-1.000000e+00
-1.000000e+00
-1.000000e+00
-1.000000e+00
-1.000000e+00
-1.000000e+00
-1.000000e+00
-1.000000e+00
1.000000e+00
1.000000e+00
1.000000e+00
1.000000e+00
1.000000e+00
1.000000e+00
1.000000e+00
1.000000e+00
1.000000e+00
-3.000000e+00
-3.000000e+00
-3.000000e+00
-3.000000e+00
-3.000000e+00
-3.000000e+00
-3.000000e+00
-3.000000e+00
-3.000000e+00
-3.000000e+00
-3.000000e+00
-3.000000e+00
-3.000000e+00
-3.000000e+00
-3.000000e+00
-3.000000e+00
-3.000000e+00
-3.000000e+00
-3.000000e+00
-3.000000e+00
-3.000000e+00
-3.000000e+00
-3.000000e+00
-3.000000e+00
-3.000000e+00
-3.000000e+00
-3.000000e+00
-3.000000e+00
-3.000000e+00
-3.000000e+00
-3.000000e+00
-3.000000e+00
-3.000000e+00
-3.000000e+00
-3.000000e+00
-3.000000e+00
-3.000000e+00
-3.000000e+00
-3.000000e+00
-3.000000e+00
-3.000000e+00
-3.000000e+00
-3.000000e+00
-3.000000e+00
-3.000000e+00
-3.000000e+00
-3.000000e+00
-3.000000e+00
-3.000000e+00
-3.000000e+00
-3.000000e+00
-3.000000e+00
-3.000000e+00
-3.000000e+00
-3.000000e+00
-3.000000e+00
-3.000000e+00
-3.000000e+00
-3.000000e+00
-3.000000e+00
-3.000000e+00
-3.000000e+00
-3.000000e+00
-3.000000e+00
-3.000000e+00
-3.000000e+00
-3.000000e+00
-3.000000e+00
-3.000000e+00
-3.000000e+00
-3.000000e+00
-3.000000e+00
-3.000000e+00
-3.000000e+00
-3.000000e+00
-3.000000e+00
-3.000000e+00
-3.000000e+00
-3.000000e+00
-3.000000e+00
-3.000000e+00
-1.000000e+00
-1.000000e+00
-1.000000e+00
-1.000000e+00
-1.000000e+00
-1.000000e+00
-1.000000e+00
-1.000000e+00
-1.000000e+00
-1.000000e+00
-1.000000e+00
-1.000000e+00
-1.000000e+00
-1.000000e+00
-1.000000e+00
-1.000000e+00
-1.000000e+00
-1.000000e+00
-1.000000e+00
-1.000000e+00
-1.000000e+00
-1.000000e+00
-1.000000e+00
-1.000000e+00
-1.000000e+00
-1.000000e+00
-1.000000e+00
-1.000000e+00
-1.000000e+00
-1.000000e+00
-1.000000e+00
-1.000000e+00
-1.000000e+00
-1.000000e+00
-1.000000e+00
-1.000000e+00
-1.000000e+00
-1.000000e+00
-1.000000e+00
-1.000000e+00
-1.000000e+00
-1.000000e+00
-1.000000e+00
-1.000000e+00
-1.000000e+00
-1.000000e+00
-1.000000e+00
-1.000000e+00
-1.000000e+00
-1.000000e+00
-1.000000e+00
-1.000000e+00
-1.000000e+00
-1.000000e+00
-1.000000e+00
-1.000000e+00
-1.000000e+00
-1.000000e+00
-1.000000e+00
-1.000000e+00
-1.000000e+00
-1.000000e+00
-1.000000e+00
-1.000000e+00
-1.000000e+00
-1.000000e+00
-1.000000e+00
-1.000000e+00
-1.000000e+00
-1.000000e+00
-1.000000e+00
-1.000000e+00
-1.000000e+00
-1.000000e+00
-1.000000e+00
-1.000000e+00
-1.000000e+00
-1.000000e+00
-1.000000e+00
-1.000000e+00
-1.000000e+00
1.000000e+00
1.000000e+00
1.000000e+00
1.000000e+00
1.000000e+00
1.000000e+00
1.000000e+00
1.000000e+00
1.000000e+00
1.000000e+00
1.000000e+00
1.000000e+00
1.000000e+00
1.000000e+00
1.000000e+00
1.000000e+00
1.000000e+00
1.000000e+00
1.000000e+00
1.000000e+00
1.000000e+00
1.000000e+00
1.000000e+00
1.000000e+00
1.000000e+00
1.000000e+00
1.000000e+00
1.000000e+00
1.000000e+00
1.000000e+00
1.000000e+00
1.000000e+00
1.000000e+00
1.000000e+00
1.000000e+00
1.000000e+00
1.000000e+00
1.000000e+00
1.000000e+00
1.000000e+00
1.000000e+00
1.000000e+00
1.000000e+00
1.000000e+00
1.000000e+00
1.000000e+00
1.000000e+00
1.000000e+00
1.000000e+00
1.000000e+00
1.000000e+00
1.000000e+00
1.000000e+00
1.000000e+00
1.000000e+00
1.000000e+00
1.000000e+00
1.000000e+00
1.000000e+00
1.000000e+00
1.000000e+00
1.000000e+00
1.000000e+00
1.000000e+00
1.000000e+00
1.000000e+00
1.000000e+00
1.000000e+00
1.000000e+00
1.000000e+00
1.000000e+00
1.000000e+00
1.000000e+00
1.000000e+00
1.000000e+00
1.000000e+00
1.000000e+00
1.000000e+00
1.000000e+00
1.000000e+00
1.000000e+00
-1.156078e+00
-2.495497e+00
-2.724699e+00
-2.824686e+00
-2.860695e+00
-2.865984e+00
-2.831282e+00
-2.728460e+00
-2.068714e+00
-9.305747e-01
-2.103804e+00
-2.510549e+00
-2.664930e+00
-2.732010e+00
-2.740704e+00
-2.693115e+00
-2.512687e+00
-1.946270e+00
-8.173069e-01
-1.956251e+00
-2.348109e+00
-2.534290e+00
-2.613890e+00
-2.631335e+00
-2.579227e+00
-2.417390e+00
-1.878721e+00
-7.628043e-01
-1.857275e+00
-2.236849e+00
-2.417574e+00
-2.504238e+00
-2.526111e+00
-2.486830e+00
-2.341693e+00
-1.838039e+00
-7.166706e-01
-1.776565e+00
-2.129792e+00
-2.300999e+00
-2.383406e+00
-2.412156e+00
-2.384694e+00
-2.265648e+00
-1.795320e+00
-6.639265e-01
-1.676177e+00
-1.999758e+00
-2.150054e+00
-2.226856e+00
-2.256824e+00
-2.247038e+00
-2.156459e+00
-1.736987e+00
-5.709524e-01
-1.517371e+00
-1.788452e+00
-1.915157e+00
-1.977658e+00
-2.009502e+00
-2.010614e+00
-1.969789e+00
-1.622334e+00
-3.859022e-01
-1.163273e+00
-1.375347e+00
-1.462653e+00
-1.510221e+00
-1.534290e+00
-1.549191e+00
-1.531370e+00
-1.382749e+00
5.859796e-01
5.987121e-03
-9.137237e-02
-1.412169e-01
-1.647905e-01
-1.803422e-01
-1.879237e-01
-2.081265e-01
-5.690241e-02
-9.332210e-01
-2.108802e+00
-2.517366e+00
-2.672893e+00
-2.740369e+00
-2.748700e+00
-2.699980e+00
-2.517741e+00
-1.948947e+00
-4.470028e-01
-1.523475e+00
-2.113444e+00
-2.382358e+00
-2.496097e+00
-2.518427e+00
-2.438788e+00
-2.187531e+00
-1.687356e+00
-2.656647e-01
-1.232745e+00
-1.830404e+00
-2.133096e+00
-2.277849e+00
-2.309810e+00
-2.236142e+00
-2.001122e+00
-1.576250e+00
-1.586555e-01
-1.057589e+00
-1.616895e+00
-1.919535e+00
-2.069303e+00
-2.116170e+00
-2.059595e+00
-1.864999e+00
-1.497212e+00
-7.637577e-02
-9.044870e-01
-1.423095e+00
-1.700733e+00
-1.848753e+00
-1.902630e+00
-1.874138e+00
-1.721454e+00
-1.420583e+00
2.084304e-02
-7.296247e-01
-1.187032e+00
-1.433865e+00
-1.565637e+00
-1.627781e+00
-1.623900e+00
-1.530984e+00
-1.312728e+00
1.648343e-01
-4.595088e-01
-8.419347e-01
-1.038894e+00
-1.151886e+00
-1.209776e+00
-1.234924e+00
-1.207920e+00
-1.132768e+00
4.733589e-01
3.756628e-02
-2.328583e-01
-3.767467e-01
-4.556629e-01
-5.067653e-01
-5.382370e-01
-5.770279e-01
-7.160393e-01
1.079039e+00
8.900498e-01
7.328921e-01
6.629468e-01
6.190277e-01
5.921260e-01
5.632617e-01
5.320658e-01
3.268193e-01
-8.282744e-01
-1.976910e+00
-2.376225e+00
-2.567046e+00
-2.648276e+00
-2.664220e+00
-2.607587e+00
-2.438264e+00
-1.889846e+00
-2.794862e-01
-1.258771e+00
-1.865767e+00
-2.174273e+00
-2.321031e+00
-2.351177e+00
-2.271782e+00
-2.027473e+00
-1.590249e+00
-3.434838e-02
-8.942513e-01
-1.486886e+00
-1.844593e+00
-2.021974e+00
-2.073064e+00
-1.998227e+00
-1.789644e+00
-1.439534e+00
1.027535e-01
-6.545573e-01
-1.206519e+00
-1.553140e+00
-1.743864e+00
-1.808582e+00
-1.764577e+00
-1.603414e+00
-1.336875e+00
2.144853e-01
-4.557077e-01
-9.452939e-01
-1.266174e+00
-1.447599e+00
-1.528250e+00
-1.515151e+00
-1.416426e+00
-1.233252e+00
3.345255e-01
-2.298730e-01
-6.492012e-01
-9.228574e-01
-1.089979e+00
-1.174493e+00
-1.200488e+00
-1.170022e+00
-1.099551e+00
5.070161e-01
7.650076e-02
-2.433902e-01
-4.640716e-01
-5.997401e-01
-6.857715e-01
-7.375858e-01
-7.968690e-01
-8.797014e-01
7.719890e-01
5.445163e-01
3.281435e-01
1.792400e-01
7.840719e-02
1.104332e-02
-5.584884e-02
-1.650841e-01
-4.878663e-01
1.284545e+00
1.198032e+00
1.099444e+00
1.020220e+00
9.693903e-01
9.285988e-01
8.865504e-01
7.875862e-01
4.934964e-01
-7.918347e-01
-1.911786e+00
-2.310643e+00
-2.503239e+00
-2.593977e+00
-2.612204e+00
-2.561240e+00
-2.396955e+00
-1.867472e+00
-2.050821e-01
-1.144622e+00
-1.734634e+00
-2.056051e+00
-2.212347e+00
-2.253299e+00
-2.178494e+00
-1.953092e+00
-1.544417e+00
6.200849e-02
-7.308546e-01
-1.309462e+00
-1.672308e+00
-1.868586e+00
-1.928369e+00
-1.868469e+00
-1.680813e+00
-1.378254e+00
2.216069e-01
-4.608977e-01
-9.830821e-01
-1.339580e+00
-1.543474e+00
-1.625622e+00
-1.595928e+00
-1.469640e+00
-1.258536e+00
3.466169e-01
-2.308644e-01
-6.887975e-01
-1.008516e+00
-1.208454e+00
-1.302442e+00
-1.314595e+00
-1.253779e+00
-1.142338e+00
4.807822e-01
1.395788e-02
-3.591728e-01
-6.332528e-01
-8.102476e-01
-9.152865e-01
-9.640971e-01
-9.857396e-01
-9.927788e-01
6.511640e-01
3.289975e-01
5.201944e-02
-1.573836e-01
-3.066569e-01
-4.055228e-01
-4.892734e-01
-5.962140e-01
-7.704853e-01
9.008271e-01
7.576170e-01
5.901052e-01
4.464204e-01
3.420441e-01
2.582178e-01
1.709917e-01
8.473303e-03
-3.850617e-01
1.356518e+00
1.329468e+00
1.252404e+00
1.183076e+00
1.126646e+00
1.080692e+00
1.020420e+00
8.977451e-01
5.512166e-01
-7.802747e-01
-1.895018e+00
-2.288774e+00
-2.484151e+00
-2.574834e+00
-2.596187e+00
-2.545466e+00
-2.385705e+00
-1.860205e+00
-1.859260e-01
-1.108631e+00
-1.696760e+00
-2.015819e+00
-2.177880e+00
-2.219475e+00
-2.150497e+00
-1.928920e+00
-1.532010e+00
9.128346e-02
-6.847279e-01
-1.251808e+00
-1.618478e+00
-1.815507e+00
-1.882381e+00
-1.825116e+00
-1.648872e+00
-1.358941e+00
2.550759e-01
-4.006200e-01
-9.150572e-01
-1.267758e+00
-1.478762e+00
-1.563173e+00
-1.543343e+00
-1.426437e+00
-1.235694e+00
3.867479e-01
-1.645345e-01
-6.059101e-01
-9.268497e-01
-1.127258e+00
-1.230225e+00
-1.248091e+00
-1.204613e+00
-1.113510e+00
5.221268e-01
8.907034e-02
-2.713756e-01
-5.386448e-01
-7.218898e-01
-8.297709e-01
-8.918182e-01
-9.271204e-01
-9.621588e-01
6.941876e-01
4.003263e-01
1.435155e-01
-6.476972e-02
-2.128684e-01
-3.208297e-01
-4.111610e-01
-5.393220e-01
-7.366873e-01
9.343347e-01
8.206688e-01
6.639630e-01
5.280263e-01
4.194728e-01
3.339969e-01
2.347221e-01
6.093018e-02
-3.585783e-01
1.377618e+00
1.363665e+00
1.297655e+00
1.228949e+00
1.173866e+00
1.123397e+00
1.060313e+00
9.261486e-01
5.686150e-01
-7.918347e-01
-1.911786e+00
-2.310643e+00
-2.503239e+00
-2.593977e+00
-2.612204e+00
-2.561240e+00
-2.396955e+00
-1.867472e+00
-2.050821e-01
-1.144622e+00
-1.734634e+00
-2.056051e+00
-2.212347e+00
-2.253299e+00
-2.178494e+00
-1.953092e+00
-1.544417e+00
6.200849e-02
-7.308546e-01
-1.309462e+00
-1.672308e+00
-1.868586e+00
-1.928369e+00
-1.868469e+00
-1.680813e+00
-1.378254e+00
2.216069e-01
-4.608977e-01
-9.830821e-01
-1.339580e+00
-1.543474e+00
-1.625622e+00
-1.595928e+00
-1.469640e+00
-1.258536e+00
3.466169e-01
-2.308644e-01
-6.887975e-01
-1.008516e+00
-1.208454e+00
-1.302442e+00
-1.314595e+00
-1.253779e+00
-1.142338e+00
4.807822e-01
1.395788e-02
-3.591728e-01
-6.332528e-01
-8.102476e-01
-9.152865e-01
-9.640971e-01
-9.857396e-01
-9.927788e-01
6.511640e-01
3.289975e-01
5.201944e-02
-1.573836e-01
-3.066569e-01
-4.055228e-01
-4.892734e-01
-5.962140e-01
-7.704853e-01
9.008271e-01
7.576170e-01
5.901052e-01
4.464204e-01
3.420441e-01
2.582178e-01
1.709917e-01
8.473303e-03
-3.850617e-01
1.356518e+00
1.329468e+00
1.252404e+00
1.183076e+00
1.126646e+00
1.080692e+00
1.020420e+00
8.977451e-01
5.512166e-01
-8.282744e-01
-1.976910e+00
-2.376225e+00
-2.567046e+00
-2.648276e+00
-2.664220e+00
-2.607587e+00
-2.438264e+00
-1.889846e+00
-2.794862e-01
-1.258771e+00
-1.865767e+00
-2.174273e+00
-2.321031e+00
-2.351177e+00
-2.271782e+00
-2.027473e+00
-1.590249e+00
-3.434838e-02
-8.942513e-01
-1.486886e+00
-1.844593e+00
-2.021974e+00
-2.073064e+00
-1.998227e+00
-1.789644e+00
-1.439534e+00
1.027535e-01
-6.545573e-01
-1.206519e+00
-1.553140e+00
-1.743864e+00
-1.808582e+00
-1.764577e+00
-1.603414e+00
-1.336875e+00
2.144853e-01
-4.557077e-01
-9.452939e-01
-1.266174e+00
-1.447599e+00
-1.528250e+00
-1.515151e+00
-1.416426e+00
-1.233252e+00
3.345255e-01
-2.298730e-01
-6.492012e-01
-9.228574e-01
-1.089979e+00
-1.174493e+00
-1.200488e+00
-1.170022e+00
-1.099551e+00
5.070161e-01
7.650076e-02
-2.433902e-01
-4.640716e-01
-5.997401e-01
-6.857715e-01
-7.375858e-01
-7.968690e-01
-8.797014e-01
7.719890e-01
5.445163e-01
3.281435e-01
1.792400e-01
7.840719e-02
1.104332e-02
-5.584884e-02
-1.650841e-01
-4.878663e-01
1.284545e+00
1.198032e+00
1.099444e+00
1.020220e+00
9.693903e-01
9.285988e-01
8.865504e-01
7.875862e-01
4.934964e-01
-9.332210e-01
-2.108802e+00
-2.517366e+00
-2.672893e+00
-2.740369e+00
-2.748700e+00
-2.699980e+00
-2.517741e+00
-1.948947e+00
-4.470028e-01
-1.523475e+00
-2.113444e+00
-2.382358e+00
-2.496097e+00
-2.518427e+00
-2.438788e+00
-2.187531e+00
-1.687356e+00
-2.656647e-01
-1.232745e+00
-1.830404e+00
-2.133096e+00
-2.277849e+00
-2.309810e+00
-2.236142e+00
-2.001122e+00
-1.576250e+00
-1.586555e-01
-1.057589e+00
-1.616895e+00
-1.919535e+00
-2.069303e+00
-2.116170e+00
-2.059595e+00
-1.864999e+00
-1.497212e+00
-7.637577e-02
-9.044870e-01
-1.423095e+00
-1.700733e+00
-1.848753e+00
-1.902630e+00
-1.874138e+00
-1.721454e+00
-1.420583e+00
2.084304e-02
-7.296247e-01
-1.187032e+00
-1.433865e+00
-1.565637e+00
-1.627781e+00
-1.623900e+00
-1.530984e+00
-1.312728e+00
1.648343e-01
-4.595088e-01
-8.419347e-01
-1.038894e+00
-1.151886e+00
-1.209776e+00
-1.234924e+00
-1.207920e+00
-1.132768e+00
4.733589e-01
3.756628e-02
-2.328583e-01
-3.767467e-01
-4.556629e-01
-5.067653e-01
-5.382370e-01
-5.770279e-01
-7.160393e-01
1.079039e+00
8.900498e-01
7.328921e-01
6.629468e-01
6.190277e-01
5.921260e-01
5.632617e-01
5.320658e-01
3.268193e-01
-1.156078e+00
-2.495497e+00
-2.724699e+00
-2.824686e+00
-2.860695e+00
-2.865984e+00
-2.831282e+00