<?xml version="1.0"?>
<VTKFile type="UnstructuredGrid"  version="0.1"  >
<UnstructuredGrid>
<Piece  NumberOfPoints="153" NumberOfCells="256">
<Points>
<DataArray  type="Float64"  NumberOfComponents="3"  format="ascii">0 0 0  0.0625 0 0  0.0625 0.0625 0  0 0.0625 0  0.125 0 0  0.125 0.0625 0  0.1875 0 0  0.1875 0.0625 0  0.25 0 0  0.25 0.0625 0  0.3125 0 0  0.3125 0.0625 0  0.375 0 0  0.375 0.0625 0  0.4375 0 0  0.4375 0.0625 0  0.5 0 0  0.5 0.0625 0  0.0625 0.125 0  0 0.125 0  0.125 0.125 0  0.1875 0.125 0  0.25 0.125 0  0.3125 0.125 0  0.375 0.125 0  0.4375 0.125 0  0.5 0.125 0  0.0625 0.1875 0  0 0.1875 0  0.125 0.1875 0  0.1875 0.1875 0  0.25 0.1875 0  0.3125 0.1875 0  0.375 0.1875 0  0.4375 0.1875 0  0.5 0.1875 0  0.0625 0.25 0  0 0.25 0  0.125 0.25 0  0.1875 0.25 0  0.25 0.25 0  0.3125 0.25 0  0.375 0.25 0  0.4375 0.25 0  0.5 0.25 0  0.0625 0.3125 0  0 0.3125 0  0.125 0.3125 0  0.1875 0.3125 0  0.25 0.3125 0  0.3125 0.3125 0  0.375 0.3125 0  0.4375 0.3125 0  0.5 0.3125 0  0.0625 0.375 0  0 0.375 0  0.125 0.375 0  0.1875 0.375 0  0.25 0.375 0  0.3125 0.375 0  0.375 0.375 0  0.4375 0.375 0  0.5 0.375 0  0.0625 0.4375 0  0 0.4375 0  0.125 0.4375 0  0.1875 0.4375 0  0.25 0.4375 0  0.3125 0.4375 0  0.375 0.4375 0  0.4375 0.4375 0  0.5 0.4375 0  0.0625 0.5 0  0 0.5 0  0.125 0.5 0  0.1875 0.5 0  0.25 0.5 0  0.3125 0.5 0  0.375 0.5 0  0.4375 0.5 0  0.5 0.5 0  0.0625 0.5625 0  0 0.5625 0  0.125 0.5625 0  0.1875 0.5625 0  0.25 0.5625 0  0.3125 0.5625 0  0.375 0.5625 0  0.4375 0.5625 0  0.5 0.5625 0  0.0625 0.625 0  0 0.625 0  0.125 0.625 0  0.1875 0.625 0  0.25 0.625 0  0.3125 0.625 0  0.375 0.625 0  0.4375 0.625 0  0.5 0.625 0  0.0625 0.6875 0  0 0.6875 0  0.125 0.6875 0  0.1875 0.6875 0  0.25 0.6875 0  0.3125 0.6875 0  0.375 0.6875 0  0.4375 0.6875 0  0.5 0.6875 0  0.0625 0.75 0  0 0.75 0  0.125 0.75 0  0.1875 0.75 0  0.25 0.75 0  0.3125 0.75 0  0.375 0.75 0  0.4375 0.75 0  0.5 0.75 0  0.0625 0.8125 0  0 0.8125 0  0.125 0.8125 0  0.1875 0.8125 0  0.25 0.8125 0  0.3125 0.8125 0  0.375 0.8125 0  0.4375 0.8125 0  0.5 0.8125 0  0.0625 0.875 0  0 0.875 0  0.125 0.875 0  0.1875 0.875 0  0.25 0.875 0  0.3125 0.875 0  0.375 0.875 0  0.4375 0.875 0  0.5 0.875 0  0.0625 0.9375 0  0 0.9375 0  0.125 0.9375 0  0.1875 0.9375 0  0.25 0.9375 0  0.3125 0.9375 0  0.375 0.9375 0  0.4375 0.9375 0  0.5 0.9375 0  0.0625 1 0  0 1 0  0.125 1 0  0.1875 1 0  0.25 1 0  0.3125 1 0  0.375 1 0  0.4375 1 0  0.5 1 0  </DataArray>
</Points>
<Cells>
<DataArray  type="UInt32"  Name="connectivity"  format="ascii">0 1 2  0 3 2  1 4 5  1 2 5  4 6 7  4 5 7  6 8 9  6 7 9  8 10 11  8 9 11  10 12 13  10 11 13  12 14 15  12 13 15  14 16 17  14 15 17  3 2 18  3 19 18  2 5 20  2 18 20  5 7 21  5 20 21  7 9 22  7 21 22  9 11 23  9 22 23  11 13 24  11 23 24  13 15 25  13 24 25  15 17 26  15 25 26  19 18 27  19 28 27  18 20 29  18 27 29  20 21 30  20 29 30  21 22 31  21 30 31  22 23 32  22 31 32  23 24 33  23 32 33  24 25 34  24 33 34  25 26 35  25 34 35  28 27 36  28 37 36  27 29 38  27 36 38  29 30 39  29 38 39  30 31 40  30 39 40  31 32 41  31 40 41  32 33 42  32 41 42  33 34 43  33 42 43  34 35 44  34 43 44  37 36 45  37 46 45  36 38 47  36 45 47  38 39 48  38 47 48  39 40 49  39 48 49  40 41 50  40 49 50  41 42 51  41 50 51  42 43 52  42 51 52  43 44 53  43 52 53  46 45 54  46 55 54  45 47 56  45 54 56  47 48 57  47 56 57  48 49 58  48 57 58  49 50 59  49 58 59  50 51 60  50 59 60  51 52 61  51 60 61  52 53 62  52 61 62  55 54 63  55 64 63  54 56 65  54 63 65  56 57 66  56 65 66  57 58 67  57 66 67  58 59 68  58 67 68  59 60 69  59 68 69  60 61 70  60 69 70  61 62 71  61 70 71  64 63 72  64 73 72  63 65 74  63 72 74  65 66 75  65 74 75  66 67 76  66 75 76  67 68 77  67 76 77  68 69 78  68 77 78  69 70 79  69 78 79  70 71 80  70 79 80  73 72 81  73 82 81  72 74 83  72 81 83  74 75 84  74 83 84  75 76 85  75 84 85  76 77 86  76 85 86  77 78 87  77 86 87  78 79 88  78 87 88  79 80 89  79 88 89  82 81 90  82 91 90  81 83 92  81 90 92  83 84 93  83 92 93  84 85 94  84 93 94  85 86 95  85 94 95  86 87 96  86 95 96  87 88 97  87 96 97  88 89 98  88 97 98  91 90 99  91 100 99  90 92 101  90 99 101  92 93 102  92 101 102  93 94 103  93 102 103  94 95 104  94 103 104  95 96 105  95 104 105  96 97 106  96 105 106  97 98 107  97 106 107  100 99 108  100 109 108  99 101 110  99 108 110  101 102 111  101 110 111  102 103 112  102 111 112  103 104 113  103 112 113  104 105 114  104 113 114  105 106 115  105 114 115  106 107 116  106 115 116  109 108 117  109 118 117  108 110 119  108 117 119  110 111 120  110 119 120  111 112 121  111 120 121  112 113 122  112 121 122  113 114 123  113 122 123  114 115 124  114 123 124  115 116 125  115 124 125  118 117 126  118 127 126  117 119 128  117 126 128  119 120 129  119 128 129  120 121 130  120 129 130  121 122 131  121 130 131  122 123 132  122 131 132  123 124 133  123 132 133  124 125 134  124 133 134  127 126 135  127 136 135  126 128 137  126 135 137  128 129 138  128 137 138  129 130 139  129 138 139  130 131 140  130 139 140  131 132 141  131 140 141  132 133 142  132 141 142  133 134 143  133 142 143  136 135 144  136 145 144  135 137 146  135 144 146  137 138 147  137 146 147  138 139 148  138 147 148  139 140 149  139 148 149  140 141 150  140 149 150  141 142 151  141 150 151  142 143 152  142 151 152  </DataArray>
<DataArray  type="UInt32"  Name="offsets"  format="ascii">3 6 9 12 15 18 21 24 27 30 33 36 39 42 45 48 51 54 57 60 63 66 69 72 75 78 81 84 87 90 93 96 99 102 105 108 111 114 117 120 123 126 129 132 135 138 141 144 147 150 153 156 159 162 165 168 171 174 177 180 183 186 189 192 195 198 201 204 207 210 213 216 219 222 225 228 231 234 237 240 243 246 249 252 255 258 261 264 267 270 273 276 279 282 285 288 291 294 297 300 303 306 309 312 315 318 321 324 327 330 333 336 339 342 345 348 351 354 357 360 363 366 369 372 375 378 381 384 387 390 393 396 399 402 405 408 411 414 417 420 423 426 429 432 435 438 441 444 447 450 453 456 459 462 465 468 471 474 477 480 483 486 489 492 495 498 501 504 507 510 513 516 519 522 525 528 531 534 537 540 543 546 549 552 555 558 561 564 567 570 573 576 579 582 585 588 591 594 597 600 603 606 609 612 615 618 621 624 627 630 633 636 639 642 645 648 651 654 657 660 663 666 669 672 675 678 681 684 687 690 693 696 699 702 705 708 711 714 717 720 723 726 729 732 735 738 741 744 747 750 753 756 759 762 765 768 </DataArray>
<DataArray  type="UInt8"  Name="types"  format="ascii">5 5 5 5 5 5 5 5 5 5 5 5 5 5 5 5 5 5 5 5 5 5 5 5 5 5 5 5 5 5 5 5 5 5 5 5 5 5 5 5 5 5 5 5 5 5 5 5 5 5 5 5 5 5 5 5 5 5 5 5 5 5 5 5 5 5 5 5 5 5 5 5 5 5 5 5 5 5 5 5 5 5 5 5 5 5 5 5 5 5 5 5 5 5 5 5 5 5 5 5 5 5 5 5 5 5 5 5 5 5 5 5 5 5 5 5 5 5 5 5 5 5 5 5 5 5 5 5 5 5 5 5 5 5 5 5 5 5 5 5 5 5 5 5 5 5 5 5 5 5 5 5 5 5 5 5 5 5 5 5 5 5 5 5 5 5 5 5 5 5 5 5 5 5 5 5 5 5 5 5 5 5 5 5 5 5 5 5 5 5 5 5 5 5 5 5 5 5 5 5 5 5 5 5 5 5 5 5 5 5 5 5 5 5 5 5 5 5 5 5 5 5 5 5 5 5 5 5 5 5 5 5 5 5 5 5 5 5 5 5 5 5 5 5 5 5 5 5 5 5 5 5 5 5 5 5 </DataArray>
</Cells>
<PointData  Scalars="f_27_1"> 
<DataArray  type="Float64"  Name="f_27_1"  format="ascii">9.9999995291197774e-01  1.2926000824751285e+00  1.2926097995129258e+00  9.9999995291197774e-01  1.5461178106112292e+00  1.5461399618200327e+00  1.7605331162214628e+00  1.7605723290418822e+00  1.9358148663124874e+00  1.9358824176590326e+00  2.0719020956359961e+00  2.0720326387913066e+00  2.1686706521500967e+00  2.1689744835412159e+00  2.2257789906412140e+00  2.2266702496330604e+00  2.2420495792515611e+00  2.2453077654724485e+00  1.2926371563838837e+00  9.9999995291197774e-01  1.5461995058185878e+00  1.7606745649270532e+00  1.9360495399759055e+00  2.0723124820976548e+00  2.1694659914807493e+00  2.2275613684597033e+00  2.2467866800011271e+00  1.2926780012753130e+00  9.9999995291197774e-01  1.5462856418836060e+00  1.7608176409717227e+00  1.9362687559571705e+00  2.0726425022744266e+00  2.1699572105094616e+00  2.2282637219379113e+00  2.2476615719433863e+00  1.2927270118225966e+00  9.9999995291197774e-01  1.5463877464265605e+00  1.7609807311352530e+00  1.9365062764951613e+00  2.0729724443640558e+00  2.1703976870734358e+00  2.2288164143839926e+00  2.2482766267132823e+00  1.2927804328885351e+00  9.9999995291197774e-01  1.5464971413691961e+00  1.7611508876306743e+00  1.9367437338451652e+00  2.0732843765749984e+00  2.1707857165808337e+00  2.2292694684555703e+00  2.2487583480520996e+00  1.2928354717111528e+00  9.9999995291197774e-01  1.5466087321425557e+00  1.7613206625200237e+00  1.9369744332397989e+00  2.0735755093913015e+00  2.1711330380347382e+00  2.2296590164354311e+00  2.2491644875990180e+00  1.2928907818288675e+00  9.9999995291197774e-01  1.5467195825667088e+00  1.7614880648637974e+00  1.9371969204276869e+00  2.0738507826930754e+00  2.1714531984168062e+00  2.2300106876267320e+00  2.2495275381759336e+00  1.2929459761329831e+00  9.9999995291197774e-01  1.5468298077394698e+00  1.7616530318541692e+00  1.9374149740115474e+00  2.0741169886178628e+00  2.1717600765954885e+00  2.2303444540139665e+00  2.2498709439651554e+00  1.2930009684913570e+00  9.9999995291197774e-01  1.5469399718481236e+00  1.7618177491267928e+00  1.9376324399280542e+00  2.0743834293642638e+00  2.1720664772673919e+00  2.2306783078370040e+00  2.2502145254443997e+00  1.2930558609925678e+00  9.9999995291197774e-01  1.5470503610624899e+00  1.7619836044603490e+00  1.9378540906101218e+00  2.0746574284926949e+00  2.1723858271065519e+00  2.2310293098455616e+00  2.2505772299808795e+00  1.2931101171515307e+00  9.9999995291197774e-01  1.5471600833095216e+00  1.7621515356029838e+00  1.9380822325289966e+00  2.0749468093421437e+00  2.1727315860010115e+00  2.2314174523641794e+00  2.2509819105255944e+00  1.2931625313229644e+00  9.9999995291197774e-01  1.5472674037968832e+00  1.7623192298190844e+00  1.9383173157115969e+00  2.0752562044588898e+00  2.1731178408848284e+00  2.2318688252817842e+00  2.2514622864924285e+00  1.2932106479465011e+00  9.9999995291197774e-01  1.5473675609849988e+00  1.7624800737388675e+00  1.9385525160520045e+00  2.0755837347482062e+00  2.1735560965261840e+00  2.2324195491270959e+00  2.2520760926619992e+00  1.2932504352344694e+00  9.9999995291197774e-01  1.5474522948904017e+00  1.7626204343472307e+00  1.9387696937872982e+00  2.0759113681143773e+00  2.1740442302045859e+00  2.2331191116665599e+00  2.2529476641549362e+00  1.2932774197231982e+00  9.9999995291197774e-01  1.5475102552301636e+00  1.7627203129504914e+00  1.9389348285568242e+00  2.0761884659804908e+00  2.1745322267480724e+00  2.2340062058752861e+00  2.2544220431417772e+00  1.2932870697435948e+00  9.9999995291197774e-01  1.5475305529930914e+00  1.7627566786949578e+00  1.9390005260916336e+00  2.0763166163546094e+00  2.1748316363039057e+00  2.2348932683105427e+00  2.2576740978825378e+00  </DataArray> 
</PointData> 
</Piece>
</UnstructuredGrid>
</VTKFile>