<?xml version="1.0"?>
<VTKFile type="UnstructuredGrid"  version="0.1"  >
<UnstructuredGrid>
<Piece  NumberOfPoints="2446" NumberOfCells="4585">
<Points>
<DataArray  type="Float64"  NumberOfComponents="3"  format="ascii">0 0.41 0  0 0 0  2.2 0 0  2.2 0.41 0  0.2404508497187474 0.2293892626146237 0  0.25 0.2 0  0.2404508497187474 0.1706107373853764 0  0.2154508497187474 0.1524471741852423 0  0.1845491502812526 0.1524471741852423 0  0.1595491502812526 0.1706107373853764 0  0.15 0.2 0  0.1595491502812526 0.2293892626146237 0  0.1845491502812527 0.2475528258147577 0  0.2154508497187474 0.2475528258147577 0  1.1 0 0  1.1 0.41 0  0 0.205 0  0.55 0 0  0.55 0.41 0  0.275 0 0  0.275 0.41 0  1.65 0.41 0  1.65 0 0  0.8250000000000001 0.41 0  0.8250000000000001 0 0  1.375 0 0  1.375 0.41 0  1.925 0 0  1.925 0.41 0  1.5125 0.205 0  1.7875 0.205 0  0.6875 0.205 0  0.9625000000000001 0.205 0  1.2375 0.205 0  2.2 0.205 0  0.4687002074688797 0.2068568464730291 0  1.99375 0.2152743902439024 0  2.0625 0 0  2.0625 0.41 0  2.2 0.3075 0  0.4125 0 0  0.4125 0.41 0  1.7875 0.41 0  1.375 0.1486128048780488 0  1.5125 0 0  1.7875 0 0  1.5125 0.41 0  0.8250000000000001 0.2613871951219511 0  0.9625000000000001 0.41 0  0.9625000000000001 0 0  0.6875 0.41 0  0.6875 0 0  0.1375 0 0  0.1375 0.41 0  1.2375 0 0  1.1 0.1486128048780487 0  1.2375 0.41 0  1.65 0.1486128048780487 0  1.126715909090909 0.2793064024390244 0  1.676715909090909 0.2793064024390244 0  0.8517159090909092 0.1306935975609756 0  1.348284090909091 0.2793064024390244 0  0.34375 0.3032389320646208 0  1.894702181800738 0.1282910975492754 0  2.092797818199262 0.1282910975492754 0  1.85625 0.3075 0  0.61875 0.3075 0  0.61875 0.1025 0  0.3648540804333487 0.1240075933101478 0  0 0.3075 0  0 0.1025 0  2.099172119769978 0.25625 0  0.48125 0.09238439620688085 0  0.5781001037344399 0.2059284232365146 0  0.48125 0.3196743479159776 0  0.7265881057911006 0.3055240343720796 0  1.99375 0.08395950269330846 0  1.459960956013612 0.3075 0  1.569025960719943 0.2986889805672169 0  0.75625 0.08213100772579164 0  1.03125 0.3278689922742084 0  0.923871252904788 0.3078247185783941 0  1.959375 0.3126371951219512 0  1.749222215368287 0.1025 0  1.275777784631713 0.1025 0  2.2 0.1025 0  1.225938124459196 0.3075 0  1.550777784631713 0.1025 0  1.000777784631713 0.1025 0  1.44375 0.07430640243902442 0  1.16875 0.07430640243902437 0  1.899250267340833 0.2229966846119207 0  0.1020898364287272 0.3140258291809757 0  1.766482954545455 0.2934032012195123 0  0.3405058858996321 0.2119987970531874 0  0.7710785630958338 0.1710968191298857 0  1.046078563095834 0.2389031808701144 0  0.2 0.3400647632937836 0  1.421109702350723 0.2261157654379721 0  0.2800464974185557 0.08982544815605742 0  0.098916018031319 0.09171660955420841 0  2.13125 0 0  2.118919042110979 0.3422084711244843 0  1.30625 0.41 0  0.89375 0 0  1.597888256393107 0.2173787389261347 0  0.20625 0 0  1.829299675393195 0.07400700849299596 0  1.71875 0.41 0  1.16875 0.41 0  2.038220665644273 0.332420740103091 0  0.34375 0 0  0.417496017710808 0.2696595573092803 0  0.2 0.07687845740457822 0  0.9295982307099278 0.1343158415898188 0  0.07390688010811153 0.1697064032433452 0  0.5238366813727013 0.2578302467013575 0  0.05452951551825875 0.25625 0  0.5229630068078351 0.1548816096928243 0  1.452769549894695 0.1548122580621249 0  1.369219062229598 0.07430640243902442 0  1.30625 0 0  0.8504409521244898 0.3356935975609756 0  0.8821881244591965 0.205 0  1.720943423819132 0.1714577452753128 0  1.157188124459196 0.205 0  1.094219062229598 0.07430640243902437 0  1.03125 0 0  1.304056576180868 0.1714577452753128 0  1.67579304192913 0.07430640243902437 0  0.2751941921308361 0.3346083473122598 0  1.209670467133757 0.1362100266964769 0  1.025335513626278 0.1700681449722324 0  0.7562500000000001 0.41 0  1.58125 0 0  0.7567170593862014 0.2409196493502535 0  0.6926714215682891 0.1272249611432207 0  0.4139715849905988 0.3397932387114203 0  0.9840787304190477 0.2717749043358119 0  0.06875000000000001 0.41 0  0 0.35875 0  0.9281250000000001 0.06276726142697993 0  0.5507396469029935 0.3219409231578227 0  0.5504468037989405 0.09136885600634273 0  1.58125 0.41 0  1.631724228912893 0.3381867502687533 0  1.825608881788174 0.14499488549201 0  1.85625 0 0  1.44375 0 0  1.44375 0.41 0  1.85625 0.41 0  2.13125 0.41 0  0.7562500000000001 0 0  0.89375 0.41 0  0.4812500000000001 0 0  0.34375 0.41 0  0.4812500000000001 0.41 0  0.20625 0.41 0  0.06875000000000001 0 0  1.16875 0 0  0.61875 0 0  0.61875 0.41 0  1.03125 0.41 0  1.71875 0 0  1.99375 0 0  1.99375 0.41 0  1.340625 0.3489494290853124 0  1.134375 0.3489494290853123 0  1.700180620188976 0.3438659752031281 0  2.135782184673599 0.07126652247502523 0  1.668441847249787 0.2129203728327609 0  1.295782514339747 0.2378437748815763 0  0.8233075729931248 0.06842334294821524 0  1.409375 0.3520314716057996 0  0.403505597322782 0.182067236678212 0  0.378125 0.05794951541303489 0  0.3043468223249023 0.1518321115979534 0  2.129248544730567 0.1906135162504124 0  2.060771381434487 0.1989445750470348 0  2.013252586573865 0.1496169464686054 0  1.942766402200229 0.1734448904596831 0  1.895522487186454 0.06076163953489683 0  2.069553871656643 0.06605731020975725 0  1.274680914880868 0.3520219391081363 0  1.614713220494657 0.09473434380863296 0  0.7899021319497519 0.3149123934144827 0  0.69518737419149 0.0634051089053758 0  0.2971740475496061 0.2592172353407536 0  1.72990325744076 0.2380068107952482 0  1.356580098625191 0.2120393231351682 0  2.034370752044885 0.2668681600792073 0  1.51768709249349 0.3426260931494756 0  1.561883724969884 0.1650446847858835 0  1.197344062229598 0.2523725417393646 0  1.804085235518364 0.3468178408964637 0  1.817887819205233 0.2589243285818559 0  1.905897727272727 0.3485060975609756 0  0.6719798073392919 0.2688965171178177 0  0 0.05125 0  0.653125 0.35875 0  0.6396896119294488 0.1627615407790282 0  0.4274150154087412 0.1242548552168279 0  1.192836486056382 0.3562350748565544 0  0.8279124365364005 0.183856489168822 0  1.097485222388854 0.2083571153401724 0  1.28257088594801 0.2944411014911587 0  1.474860187679412 0.2504218616229368 0  1.406767003493824 0.2829282258560709 0  0.446875 0.04619219810344041 0  0.515625 0.04585361801037557 0  0.592043440706648 0.05125 0  1.845656689180403 0.1998310418452388 0  2.144958525570388 0.2909790873294231 0  0.6171090763650112 0.2492366900333857 0  2.2 0.15375 0  0.5145586920831158 0.3648371739579888 0  1.57794966442982 0.3540357145964566 0  0.721875 0.3633107922168974 0  0.0496154796471391 0.333125 0  0.5843750000000001 0.3662560860076676 0  0.5810878747760798 0.1474002776121195 0  1.508991196088596 0.1421783375065625 0  0.8840670607017558 0.2640994375393898 0  0.09776612425612034 0.2204896805326566 0  1.50436820029908 0.06143401634903343 0  1.223857000523521 0.0823554862453532 0  1.153316824384777 0.1289850171317837 0  2.148922302309752 0.1258841779285271 0  0.309375 0.04312325590431198 0  1.621993280276081 0.2841214267927899 0  1.550118654119087 0.2461998729100966 0  1.327182649291491 0.1216967252533594 0  1.051977450479407 0.1221382572915816 0  1.753125 0.04556020050186112 0  1.271875 0.04556020050186116 0  0.9816084133102366 0.05126138213476004 0  1.039051841454368 0.0572224914831029 0  0.9719230514536006 0.3480477870845102 0  1.94956388244759 0.1180512551534177 0  1.949997712993411 0.04965831614304109 0  1.771961817615021 0.1530278789497521 0  1.909246823951428 0.2812757146784527 0  0.2459536687882397 0.04668633953831142 0  1.948575539857022 0.2445328248721197 0  1.697271520964565 0.1233917627620729 0  0.7964897648514618 0.1211426571931604 0  1.065625 0.3689344961371042 0  1.085849084308977 0.3170853572226867 0  0.4702981435440001 0.260434880697798 0  1.577403511714593 0.05463601888079143 0  0.05622663515370135 0.05493816910862376 0  0.3267207591099919 0.3566194660323104 0  0.9003051618565143 0.3564049499960621 0  1.751571320346033 0.3651102912045228 0  0.1583785085108421 0.2994699345738728 0  0.1455283439499995 0.3542795598723423 0  2.2 0.35875 0  0.2347662494194072 0.298325008655211 0  0.1527284455616188 0.1065771775690181 0  0.1382139529076665 0.05427454456341477 0  0.8749341636311069 0.05110114999892954 0  0.643661668713109 0.05693499781019222 0  1.466879772203159 0.3611261772912453 0  1.990280163552011 0.3564754268533217 0  1.17471064520912 0.2990917256188288 0  0.5202693090594349 0.206382495511728 0  0 0.25625 0  2.2 0.25625 0  2.2 0.05125 0  0 0.15375 0  1.853978576207987 0.35875 0  0.9787513713939683 0.1487523696999336 0  0.240625 0.3722153812029779 0  1.515638456102889 0.2882700110184686 0  0.09048297387599738 0.3637717362208066 0  2.150453692751374 0.2387066338105111 0  1.323782677156475 0.04897634338873398 0  0.8074131292871642 0.3624701995505916 0  1.409375 0.03715320121951221 0  1.406484531114799 0.1087852750766809 0  1.134375 0.03715320121951218 0  1.627401732573545 0.04552157221025036 0  0.1170173172005315 0.1427610859166811 0  2.045405893604797 0.1105340662939892 0  1.255408269734577 0.1577307500159216 0  2.028125 0.03707597992059326 0  0.4743610090857199 0.1421513964721819 0  0.9354010469015898 0.250631300585664 0  0.04420832937638274 0.128125 0  0.8922386349349938 0.0992956419364831 0  0.1197849154434487 0.2663398672460083 0  1.248258025468107 0.2565907092181813 0  0.3746885856929528 0.370723531618974 0  1.203125 0.0366132337404304 0  0.5724622277005015 0.2751253816079333 0  0.3365425205162783 0.08395777655057959 0  2.072662025974815 0.2975086504196739 0  0.4581080832182547 0.3648371739579888 0  0.3874522734668214 0.2295447548840689 0  0.7827853612484443 0.04106550386289586 0  1.887722846421017 0.1760882698830035 0  1.472640588990488 0.1118278026240017 0  1.865937103925594 0.2604137786483804 0  1.463913572748262 0.2030442564990043 0  1.376426316059077 0.3186741374914345 0  0.6641993820150034 0.3141688596240831 0  0.2943117490824315 0.2130987422685822 0  0.3478153998082709 0.1666571081082676 0  0.3427990510599805 0.2575950027870776 0  0.7997118993855807 0.2216171933356366 0  
[...]
<PointData  Scalars="f_23-0"> 
<DataArray  type="Float64"  Name="f_23-0"  format="ascii">1.9517305780466027e-10  8.1950423638851578e-05  2.1048274548195987e-40  5.1957622294462348e-41  7.4075881589050172e-05  3.2671901201643548e-04  9.9900758893884897e-04  1.5996855889320431e-03  1.1759775430071589e-03  4.3324491060494719e-04  1.1152852344062470e-04  4.3022202199473482e-05  2.4523393460023669e-05  1.7154050961404552e-05  8.8869650662273881e-16  1.9407108861325343e-17  6.2424760378885784e-06  5.4035601996965545e-06  6.0190094776743565e-10  1.8069997783404133e-03  5.8628669097165696e-08  1.2413994101776296e-28  8.7297489338702014e-28  9.3115284832263075e-13  2.0509718316839777e-10  1.4315633985834719e-21  7.8357315562946621e-23  5.6015770468229575e-34  7.8236214412159902e-35  8.9664758945629186e-24  6.2025924434336942e-30  7.4299900690318357e-08  1.6633168226820917e-12  6.3315186601851602e-18  2.0928004661027104e-39  3.6789883376332671e-05  9.4116317466164636e-35  3.1496416341550164e-37  3.9250645139526918e-38  6.5446176360665981e-40  2.2192970981477171e-04  1.1490532417864669e-08  5.5198221304573487e-32  1.1694183679990381e-20  1.2570552861074909e-24  5.4458305355891790e-31  1.1993888716674739e-25  1.5669493272683338e-10  5.5028420922009974e-15  5.3935322258703657e-13  4.2721895092815026e-11  5.5237577504178676e-08  2.3941915249304155e-03  2.1740564061419661e-09  1.4276629977802920e-18  6.1038279780190401e-15  5.5544168915946953e-20  9.9285215369250253e-27  3.2748209692968262e-16  8.3702129228927272e-28  3.5038984508835416e-10  1.0962300763274535e-20  1.4186871425948228e-06  2.4280412583755665e-32  4.9947962687702103e-37  5.2496420124707895e-32  2.8577725649274959e-08  2.2837287853863008e-06  1.2208775171677214e-03  1.3880505171321763e-07  1.0042688875740568e-05  2.5250123886077032e-37  1.3272853356320887e-04  2.4587798486912710e-06  1.2669174674514392e-07  1.4217562467552243e-09  9.7309309443146109e-35  2.9794454781344675e-23  1.4604951171056664e-25  1.5833671776417173e-08  7.6145146877025072e-15  1.0727957418187714e-12  2.2387218859991968e-34  5.4416400787195631e-29  1.6272935393398196e-18  2.1616584010975889e-39  2.1136371393190332e-18  1.7478325775162377e-24  5.9677966802299025e-13  3.4263113026037377e-22  2.2944927478277408e-16  1.3753645537573541e-32  9.5172426180924249e-08  6.7082556521628543e-30  1.5650667511841367e-04  6.0547190616613558e-09  2.6064354195301869e-14  9.8084503816592433e-07  6.6349094942750297e-22  3.0512008225411489e-03  4.4891003981083095e-03  4.8253220049252420e-39  2.4139936434116689e-38  2.0680101692066909e-21  9.8141654503410393e-12  9.9110260687368355e-26  2.7693110670937693e-03  6.1647771985835577e-31  3.8416960534888276e-30  1.2298854085103601e-18  2.0394320840722620e-36  7.8218921298242442e-04  3.7446157044071839e-06  4.7873341777010039e-03  1.3431501621634056e-11  4.8069944342771634e-05  1.8706973576703984e-06  1.2059955509665956e-06  2.9720181938696581e-05  2.4418252659318469e-22  1.3543006165899244e-20  3.8142508692506107e-20  6.9670642125483198e-12  4.5262827325850810e-11  2.3417185995903180e-28  2.6608316696415528e-16  7.8678997259464098e-15  2.5872455012568395e-14  3.3742336468507314e-19  2.1533859043778878e-27  1.4998956283471449e-06  3.7733047425210358e-17  1.5488682028391930e-13  5.0810293644681990e-12  4.0289385619391377e-26  3.1454577995979155e-09  1.6779984275427791e-07  1.2009057090944508e-07  1.9910953078260848e-13  4.0276007646200077e-13  8.6772363436681944e-09  1.1154681512659248e-11  5.5343312729954480e-08  2.0084146649156166e-05  3.7463616367583936e-27  3.0733167757786693e-27  9.8046585107777245e-31  1.5846033429526033e-32  3.1561718016594148e-23  3.7804358992611130e-24  2.8814248574164896e-33  1.3639687478564859e-39  3.4621799144014425e-09  8.1606163490809169e-14  4.2204455908732415e-05  3.6283985077767942e-08  2.2057830230883388e-09  2.0454449353941637e-08  6.9889344467572367e-04  4.2370615159711434e-17  5.9570569580969773e-07  2.0098589927444001e-10  3.6701187689934117e-16  2.4608836254715074e-29  1.0254285958376079e-35  2.0740768568852390e-36  3.8139308549283745e-21  4.8992755846546524e-17  7.6832432595180790e-29  3.5080332495528648e-38  2.7084312235390653e-27  2.7233290755200458e-19  1.0036529356975195e-09  1.3656944918219330e-22  2.5981721812628767e-04  9.5308600479345482e-04  1.5433371877262697e-03  7.0557875800963817e-38  2.7527631032510292e-36  3.9869234356942324e-35  1.8445302531968526e-33  1.5579372534474590e-32  1.2492427727723582e-36  7.9667416499921758e-20  6.0948050700430843e-26  1.2238540608966547e-10  1.3405174956724037e-07  1.2872947146969163e-05  9.4129837140461284e-29  1.8453462534385692e-20  6.6738398322652085e-36  8.3274578696057361e-25  9.4909888201958839e-25  2.2316435076041186e-17  3.6477222771209516e-31  6.5415168246060792e-31  1.6980573431989586e-33  2.6035727508432484e-08  2.9448286733360782e-05  9.9683613848352214e-10  7.7520907217355714e-07  4.0862732946348839e-04  3.0564757957042995e-18  5.7623658028198167e-10  4.1111194652107905e-15  2.0097682890617096e-19  3.5702222852548350e-23  6.1242142713695418e-22  2.2158055266885648e-04  3.8732199842461543e-05  4.2205014613878807e-06  2.6223262101957049e-31  1.4246575047980656e-38  2.4804231577390306e-07  2.1764518027119698e-39  7.3340618814292439e-09  2.7437644889088884e-26  1.4374454602127259e-10  3.4555516134594177e-08  2.8610876948245590e-09  5.9893848499743608e-06  1.4674913977933059e-23  1.5125192849151877e-11  8.5013641919308433e-06  1.2514958346783658e-23  1.8496906821090226e-17  5.7688182250164920e-16  2.4654434701184380e-38  2.0332388939999376e-03  1.2547675771822930e-26  8.1462886302103132e-25  1.2732157836739054e-19  6.2375430611047578e-14  2.2466008643032679e-29  1.1228898397977332e-18  9.4988110650151624e-13  7.6468338283788303e-14  4.5449810665403815e-14  1.1959321319001797e-33  6.3258013908102529e-34  1.6835942191589184e-29  4.3528091726616682e-33  3.4535768866580750e-03  8.0644546562371493e-34  8.5051867721434405e-28  3.3854182076661403e-09  5.1303959458329806e-16  9.1936188676640124e-16  4.3310525579932415e-06  2.6564591586238891e-25  6.2675919862165055e-04  3.6630843965047679e-07  5.2465951847093926e-13  2.9339427341815706e-30  2.6234115793456444e-06  5.6093995281238742e-08  2.6598511302983924e-40  6.8299139461411979e-06  5.0868073562291127e-03  5.1843528496571733e-03  9.8533967605576190e-11  8.0942656275803417e-07  6.6541022405166679e-24  1.6922036146905039e-35  2.5012094414959432e-17  1.1411925875172657e-05  1.1723356323901595e-06  1.3387210457729961e-39  1.1429153552652002e-39  2.3259089957790303e-05  2.0313775353183252e-32  1.4587429170865793e-12  2.4201404505666162e-07  2.4992837317818398e-24  5.7788661268049965e-09  1.7942515964960686e-38  9.7528987829168805e-20  1.1474340311474003e-11  8.8903793335400111e-22  2.5918013877422669e-21  6.0789884093706015e-16  1.6829682838427968e-26  2.4025171049352678e-03  6.5727092820064281e-36  3.8254341203623285e-18  6.7860276283064891e-36  1.2095907401616008e-04  2.6142205659413594e-12  2.0065300047594824e-04  6.8861923162598105e-11  2.4523502154876830e-06  1.9665800714054433e-18  9.5932295244302910e-08  2.5253578859468854e-17  3.1173886706377314e-07  1.9060569405304649e-03  6.0219775714846865e-37  1.9588905110907586e-08  4.7475564434777944e-05  3.4158796783997362e-09  3.5302493720929336e-32  9.1233469569393616e-23  5.7277962977794786e-32  1.0080060373857995e-22  1.3755727741791867e-21  6.4638554639766759e-09  1.7101207588923607e-04  8.6950245700410521e-04  6.8370325608525983e-06  9.2842775282763583e-10  7.4729004823273005e-29  7.8807686822959273e-30  1.0791670701905149e-37  4.1070551330881883e-08  3.0691070298623023e-08  2.1593264807080406e-13  2.3389991702640968e-14  2.7885678853069894e-15  3.5012834220514759e-21  2.1295205353352906e-03  3.1446364156965506e-37  1.2169677676343968e-25  3.3240931672454839e-07  1.4815411263682709e-08  5.2563024924864873e-31  5.7162774855737371e-06  7.7084969049992019e-35  2.6927730693560402e-39  7.8133669294786050e-39  1.6112215217309297e-37  2.2338084405262005e-03  2.2487806841991196e-08  7.0226123065253149e-28  5.4863867715376274e-30  2.0572889423910816e-35  2.8155821747950578e-03  3.5265401289722240e-21  5.2787402023320965e-17  6.6455559112010390e-24  2.2396755692414011e-26  2.1333251618528067e-26  2.2264557326309675e-13  1.2026597140959005e-28  2.4393218024176942e-28  1.7455505358850499e-15  4.3638168679517137e-15  4.8503288171745690e-39  1.1596525975695901e-39  5.5105939103476772e-11  4.6269497225934900e-07  3.6601694973685974e-11  1.2698588518772030e-11  7.7917957651551199e-11  1.0919877123526079e-26  2.1105353839707801e-30  9.6323790697687617e-32  2.6194680678199722e-25  1.1266578445105622e-34  5.5996983573071050e-05  2.9450342292134551e-03  1.6175310960448419e-32  9.2546866682582223e-15  2.0115070475223211e-29  2.7005304349192105e-28  3.2666608778541950e-12  5.3874795745487277e-04  1.0153591606321213e-08  3.9333528075611046e-36  2.3674562402442087e-14  1.0815795414226590e-24  2.9763877790284522e-19  4.9280599696241083e-37  5.5049881705383307e-23  3.9951252583380467e-03  2.0280635838884919e-14  1.4980231717127301e-04  9.6580417012657007e-26  5.3941936404174533e-10  6.5127054069164399e-07  3.2537077206120009e-07  1.0706680522301357e-08  1.5425398322741537e-15  8.2861556487479073e-11  6.3267219464790030e-16  9.5851908039178896e-16  1.4358785403017135e-04  1.3650090679390416e-38  2.2421720871590637e-20  6.5933371046011775e-35  2.3603144192406970e-11  4.3102400083382187e-34  8.0838756805769153e-32  3.0683556948799577e-33  3.1095344581872103e-33  1.3339520386800204e-23  3.3980606116379793e-28  1.6919132007010274e-27  8.6261917993975695e-27  1.9853910074018859e-04  3.1788845877228441e-12  3.2560353543494591e-06  3.0353393045908005e-09  9.7590952858919108e-37  1.7511566274781990e-21  1.7885382841801487e-07  5.6371657738576736e-14  2.5223015456536983e-07  1.1327339029822481e-05  5.7685257431963937e-06  9.7994996750476373e-30  7.8740625586338394e-08  7.4794736128003986e-14  9.1560112000104333e-10  3.5427091950662646e-23  9.8101498856637146e-06  9.6030096462790828e-17  3.2951223897831286e-10  1.0657760826581545e-35  1.1342704100406304e-22  2.6950847993372346e-07  7.7076649733637291e-08  5.0100642372120060e-24  4.9606010956313159e-08  1.9332398617608101e-06  4.1542332213489556e-05  6.4823637334773945e-05  8.8135883845621537e-06  1.9248295427945988e-03  7.5858072842609071e-07  2.8563938904521186e-06  1.0809463805364272e-12  4.0030157105929139e-07  1.9702235463320522e-24  4.9072722797134205e-29  9.6273976150844632e-19  1.3036359238889115e-28  6.8476080830134886e-19  1.6600298458686337e-20  1.1180904076053498e-20  1.1897316437448880e-14  1.5778079668764042e-27  6.7122556628113719e-20  3.5474393006124132e-34  1.8228701883918450e-03  4.1754020419817730e-07  9.2273443421445290e-17  7.5633345072468150e-18  1.6387537603465869e-03  1.6633580899035789e-06  2.0866800246456597e-26  6.3822195202359052e-28  4.5499838806514552e-06  3.0096852441508304e-03  1.5297340010048090e-05  4.2780849048508496e-05  8.9820769593894614e-06  1.4853054270454428e-27  1.5502078530858396e-25  1.7942675844002411e-25  6.0716479414367994e-07  1.1221366576117414e-31  2.3230743321205122e-10  1.9747504072545864e-36  1.4474749545369015e-35  2.7077442487092133e-19  8.1021914488515405e-04  9.5819488827109171e-38  1.1308249132694887e-37  1.0535296358757925e-38  2.8022867788488100e-30  1.8776437745926125e-24  9.0344569436875411e-14  3.5604561522334154e-13  6.2705292856678544e-13  2.0095839920763275e-07  1.9858126929267214e-21  2.3746716329655704e-16  2.8468545398001764e-12  1.7764313244055226e-11  5.0193366949591479e-11  3.0128721002893171e-10  9.6897171070107845e-39  1.1235905476469017e-37  1.5089349751469655e-13  7.2188064076002167e-34  1.8729926568758574e-38  1.7299230101959993e-09  2.7961712843319442e-17  5.9350133689655968e-12  1.7471441969406634e-31  3.2186207266676988e-30  8.6042675061255707e-07  1.4435095846252015e-03  3.0053955118524157e-08  1.4987280308018445e-11  6.5310705920049639e-04  3.1925485591568964e-13  1.9842054768863055e-09  6.6411567341592082e-18  5.8041417697040805e-18  8.8062220366579659e-21  3.5120825259173931e-22  4.5270582161836720e-22  9.0646824272441644e-17  5.8443691312426386e-22  1.1716216717095641e-37  2.0343795619468369e-19  2.4057382650663763e-12  7.7238099164029527e-09  2.4463306938445897e-04  6.0627091721659186e-04  4.2461830538880179e-04  4.2819946934779049e-04  5.6488881426814200e-08  3.5543901467986219e-07  1.8298901561975036e-08  4.8488266125305698e-09  2.0522755120109787e-31  4.2813836915852722e-18  7.6008292984346591e-13  5.2324988828853864e-05  1.8619692323756798e-05  7.3641095691614977e-06  2.6468127817755925e-22  1.5895803078086082e-29  1.2037591812836153e-34  1.7086155393452158e-35  2.9407037936360117e-34  9.0465993442971344e-21  3.7742954397978503e-17  1.2001631765966636e-16  8.4694428841932301e-05  6.2681633718634410e-21  4.7489561744092817e-15  8.2048880618268986e-40  3.4526025814370020e-38  1.9731473435394807e-16  2.7189238707729931e-22  6.7342903218741906e-25  6.0396801779806386e-31  8.5794228314960652e-17  5.3679032541466864e-30  1.8081025732600120e-11  1.2945897703093403e-23  1.3927889112102308e-08  2.3907391805843563e-40  2.6029049396740493e-12  2.3442382492724593e-08  9.7623041822094274e-05  5.4225910219825352e-09  1.5808199451430261e-03  4.4841850765499300e-08  2.3418041451808047e-03  1.9671076023508241e-10  1.7286932016342162e-07  8.4464930559656357e-10  1.2510152155347171e-03  3.1013809771394849e-10  9.5691303040901167e-10  1.8531340599877764e-06  1.5509325951051736e-05  7.7810695636352922e-11  1.2609571240837757e-13  6.0899700977938746e-18  6.2610267118776526e-27  7.0070378075639970e-35  2.2645870708740530e-19  1.7316156802542985e-36  1.2226094846343520e-35  1.4325896110508101e-29  3.9612417574289859e-35  4.0914274723953408e-09  5.2537979329548093e-22  2.1380270206981699e-16  1.0055129856931708e-03  3.9578565278577898e-20  6.9407157020807505e-20  1.6516174893899866e-17  5.3832177593137925e-25  4.6483679792282467e-24  3.8431902076045257e-33  1.3612279379040181e-05  3.8245120035447849e-23  2.5498130969995526e-23  3.3297863507481732e-28  6.9790933046033705e-33  4.1061743393117131e-28  3.7302786252337706e-03  8.5582313858892390e-08  8.4057484489036951e-31  1.9459254034862786e-27  1.6309292534158012e-19  1.2776166455195492e-33  9.2323030014114776e-25  3.8205486510811243e-11  4.3094106585715124e-15  9.9226055539389889e-15  2.8079323313184042e-06  4.7203912942570522e-06  4.5176551611583488e-26  7.7689312339342268e-10  1.0099031326122779e-36  6.3439731437634888e-37  1.3392946912450268e-13  2.1631736696237620e-10  1.7491394825652803e-20  1.6043608185840644e-06  4.5093117022422268e-19  4.1730688216189547e-33  8.5669436954890057e-33  4.1912492679359178e-09  1.7678767453688840e-37  5.4742661018078332e-03  3.2084513704197827e-08  6.8616972250028119e-09  1.1147147568394635e-11  3.7862449874700736e-36  1.3194254585142551e-31  1.9767257645851804e-14  1.1124688868735792e-31  1.9781199338706219e-28  2.5009841178280878e-31  5.2858308343752222e-34  5.2578694085190861e-39  2.9507684199324549e-04  3.4978212741658688e-12  6.1580446176126312e-25  1.0171348633467042e-09  2.3358345018804407e-13  3.4123067375589148e-25  1.2770818044769408e-26  2.1095371554448418e-03  5.7582240815285634e-34  3.6451522186751583e-05  2.7963795275099996e-26  6.7307976153460362e-05  2.3397870164198233e-03  3.5401560064475704e-03  2.1919533758615112e-06  5.8616257187498940e-27  2.6299744137954362e-15  3.6565392858538681e-24  2.9617255226665647e-03  6.0788421606893029e-20  3.7195922421213292e-12  5.2505687698806413e-08  7.6062646819866528e-07  3.2291484647189269e-33  3.3287698814502422e-09  3.6248614200366165e-34  1.3391545716683096e-17  5.5356194577455164e-11  2.4940784305958461e-25  1.4486499957363289e-30  3.3521963690662956e-14  5.7092049925488477e-18  1.8842545157121787e-05  2.6270622936027204e-29  1.2177619143553753e-06  1.7332904572623995e-18  4.9344595293448121e-18  1.0090954531654721e-16  4.8403670713959390e-27  6.6214757426805440e-23  1.9195343466131555e-30  1.9773139605197405e-31  4.9927278502580923e-37  8.3828257671023858e-24  1.3877513456168384e-35  6.3869560720461241e-05  1.2724024132579760e-04  2.7898264493420231e-24  1.6137721867909604e-32  6.4752535538971801e-20  3.5484863983147847e-07  6.8849549338629389e-08  1.7627449036223891e-25  3.1270772906958739e-03  2.0683935048511127e-07  8.6721661487263034e-07  2.1494494036454941e-34  1.2675897081460116e-05  1.2038084855481464e-21  1.1716847160517406e-06  3.3914257820099175e-18  1.5698471965181643e-32  9.8576055675667700e-14  2.4758817390999679e-06  3.6766384507740700e-06  7.8388171372937730e-04  2.4265113927979669e-37  4.8275965554821655e-10  4.1543962764066142e-31  7.9709897404032700e-18  3.0387093364189453e-26  2.0587070967099222e-32  1.6533695527153376e-39  1.1654438073434182e-15  8.0989444270330478e-06  5.4539126540118600e-15  1.1784467994653121e-15  2.9703696138293245e-10  4.3555888791019264e-27  2.4135903539300251e-07  6.5162607466817348e-39  6.0249968995373345e-14  1.3358680497760020e-36  3.5614647939638093e-13  2.7418649868188501e-08  2.1141252345666191e-07  1.2537647640842386e-32  4.7111826531513918e-12  3.0662786294818194e-21  1.4167926439054548e-22  2.3770611780228859e-23  1.7988634086946545e-23  1.5245246319490775e-22  1.4862393865988322e-32  7.9477079260071575e-10  4.8301415263230053e-08  1.7496704334021783e-14  3.3771049497106594e-09  1.6114667615340861e-10  2.7217367421915468e-21  4.8441818621962459e-22  7.7366871494725115e-11  2.9278259237187933e-15  5.1910713623956181e-32  1.3167070513025524e-12  8.9337672202597447e-08  1.2803499338676207e-07  6.5450849459636798e-10  1.9612072760383792e-39  1.3092271861881426e-06  9.4188445890122124e-19  3.9226973787941533e-19  4.0438730232137458e-12  2.0563951476411681e-20  2.6590223006845457e-11  1.0109353709051160e-28  4.9204645310556128e-11  2.0620525057771811e-16  2.3263173020534130e-06  5.5372108931539977e-04  2.7570140165778937e-36  3.4657508987641182e-14  2.7036662406157050e-10  2.4303046121876271e-05  5.8969062137096668e-23  3.3498313816526313e-27  1.9668591724066899e-04  9.3532762220135920e-09  1.2285095121649139e-08  8.9227715768700649e-05  1.3016327974123668e-05  5.1101919249117409e-31  1.3941662849677744e-38  4.3187295229231309e-38  2.8864010326456333e-39  1.5960409052393526e-09  5.1757477135993232e-32  3.9294674303286337e-35  5.9177499885040716e-14  1.6047752119615609e-19  2.9049625959539890e-29  3.8324608559544536e-30  1.9063497954599061e-25  3.3922598885740093e-08  1.4498349437271403e-16  3.5764717654836782e-16  2.5169659925943989e-03  5.6271178438985474e-20  1.2551638623102565e-18  3.6469374784616799e-15  1.2333091493315832e-15  1.3841952153899244e-10  6.3314619726799414e-09  2.5093111906050445e-08  7.7741749095197441e-19  3.1143292050026194e-03  4.2037549488221394e-03  7.6268832951829077e-04  1.1305696989391642e-08  2.4691752569538398e-03  1.5657400161133431e-15  9.7798409915855871e-08  1.8236725283745335e-08  1.9529886636177518e-39  1.8716878704390366e-05  3.0541996452601787e-06  6.2480669051124860e-26  7.0261652608783224e-27  1.3545513765652519e-05  5.8207813303625362e-33  1.2073835969173211e-07  2.0202383408791211e-05  3.8350147057527314e-08  6.8863813651050961e-08  5.0796636559884145e-03  6.3263360020911468e-03  2.0409413139402888e-33  4.7870763161306033e-37  9.2422663278129543e-08  2.8977544425332438e-24  2.6554450785271657e-25  2.5145615575587666e-25  4.8538099727569111e-21  5.9278393223842698e-17  5.3561497038145163e-26  1.3612902939081601e-30  1.3405572974038557e-09  9.4376858751620247e-31  3.1577238511325184e-33  7.9174875300416976e-34  2.6385105384191452e-07  3.3027268672109611e-04  1.6248751084719749e-29  1.8273785967420287e-09  3.3330334326241285e-29  1.2518225804941742e-18  1.4642817404798300e-22  2.4997352125540582e-11  1.4834006010804407e-05  6.0973762323470128e-32  1.2618701657844589e-03  3.3907070876059599e-19  6.2819512064852580e-06  2.1932040942385002e-06  7.7206970394206187e-28  2.5006238049659