<?xml version="1.0"?>
<VTKFile type="UnstructuredGrid"  version="0.1"  >
<UnstructuredGrid>
<Piece  NumberOfPoints="2446" NumberOfCells="4585">
<Points>
<DataArray  type="Float64"  NumberOfComponents="3"  format="ascii">0 0.41 0  0 0 0  2.2 0 0  2.2 0.41 0  0.2404508497187474 0.2293892626146237 0  0.25 0.2 0  0.2404508497187474 0.1706107373853764 0  0.2154508497187474 0.1524471741852423 0  0.1845491502812526 0.1524471741852423 0  0.1595491502812526 0.1706107373853764 0  0.15 0.2 0  0.1595491502812526 0.2293892626146237 0  0.1845491502812527 0.2475528258147577 0  0.2154508497187474 0.2475528258147577 0  1.1 0 0  1.1 0.41 0  0 0.205 0  0.55 0 0  0.55 0.41 0  0.275 0 0  0.275 0.41 0  1.65 0.41 0  1.65 0 0  0.8250000000000001 0.41 0  0.8250000000000001 0 0  1.375 0 0  1.375 0.41 0  1.925 0 0  1.925 0.41 0  1.5125 0.205 0  1.7875 0.205 0  0.6875 0.205 0  0.9625000000000001 0.205 0  1.2375 0.205 0  2.2 0.205 0  0.4687002074688797 0.2068568464730291 0  1.99375 0.2152743902439024 0  2.0625 0 0  2.0625 0.41 0  2.2 0.3075 0  0.4125 0 0  0.4125 0.41 0  1.7875 0.41 0  1.375 0.1486128048780488 0  1.5125 0 0  1.7875 0 0  1.5125 0.41 0  0.8250000000000001 0.2613871951219511 0  0.9625000000000001 0.41 0  0.9625000000000001 0 0  0.6875 0.41 0  0.6875 0 0  0.1375 0 0  0.1375 0.41 0  1.2375 0 0  1.1 0.1486128048780487 0  1.2375 0.41 0  1.65 0.1486128048780487 0  1.126715909090909 0.2793064024390244 0  1.676715909090909 0.2793064024390244 0  0.8517159090909092 0.1306935975609756 0  1.348284090909091 0.2793064024390244 0  0.34375 0.3032389320646208 0  1.894702181800738 0.1282910975492754 0  2.092797818199262 0.1282910975492754 0  1.85625 0.3075 0  0.61875 0.3075 0  0.61875 0.1025 0  0.3648540804333487 0.1240075933101478 0  0 0.3075 0  0 0.1025 0  2.099172119769978 0.25625 0  0.48125 0.09238439620688085 0  0.5781001037344399 0.2059284232365146 0  0.48125 0.3196743479159776 0  0.7265881057911006 0.3055240343720796 0  1.99375 0.08395950269330846 0  1.459960956013612 0.3075 0  1.569025960719943 0.2986889805672169 0  0.75625 0.08213100772579164 0  1.03125 0.3278689922742084 0  0.923871252904788 0.3078247185783941 0  1.959375 0.3126371951219512 0  1.749222215368287 0.1025 0  1.275777784631713 0.1025 0  2.2 0.1025 0  1.225938124459196 0.3075 0  1.550777784631713 0.1025 0  1.000777784631713 0.1025 0  1.44375 0.07430640243902442 0  1.16875 0.07430640243902437 0  1.899250267340833 0.2229966846119207 0  0.1020898364287272 0.3140258291809757 0  1.766482954545455 0.2934032012195123 0  0.3405058858996321 0.2119987970531874 0  0.7710785630958338 0.1710968191298857 0  1.046078563095834 0.2389031808701144 0  0.2 0.3400647632937836 0  1.421109702350723 0.2261157654379721 0  0.2800464974185557 0.08982544815605742 0  0.098916018031319 0.09171660955420841 0  2.13125 0 0  2.118919042110979 0.3422084711244843 0  1.30625 0.41 0  0.89375 0 0  1.597888256393107 0.2173787389261347 0  0.20625 0 0  1.829299675393195 0.07400700849299596 0  1.71875 0.41 0  1.16875 0.41 0  2.038220665644273 0.332420740103091 0  0.34375 0 0  0.417496017710808 0.2696595573092803 0  0.2 0.07687845740457822 0  0.9295982307099278 0.1343158415898188 0  0.07390688010811153 0.1697064032433452 0  0.5238366813727013 0.2578302467013575 0  0.05452951551825875 0.25625 0  0.5229630068078351 0.1548816096928243 0  1.452769549894695 0.1548122580621249 0  1.369219062229598 0.07430640243902442 0  1.30625 0 0  0.8504409521244898 0.3356935975609756 0  0.8821881244591965 0.205 0  1.720943423819132 0.1714577452753128 0  1.157188124459196 0.205 0  1.094219062229598 0.07430640243902437 0  1.03125 0 0  1.304056576180868 0.1714577452753128 0  1.67579304192913 0.07430640243902437 0  0.2751941921308361 0.3346083473122598 0  1.209670467133757 0.1362100266964769 0  1.025335513626278 0.1700681449722324 0  0.7562500000000001 0.41 0  1.58125 0 0  0.7567170593862014 0.2409196493502535 0  0.6926714215682891 0.1272249611432207 0  0.4139715849905988 0.3397932387114203 0  0.9840787304190477 0.2717749043358119 0  0.06875000000000001 0.41 0  0 0.35875 0  0.9281250000000001 0.06276726142697993 0  0.5507396469029935 0.3219409231578227 0  0.5504468037989405 0.09136885600634273 0  1.58125 0.41 0  1.631724228912893 0.3381867502687533 0  1.825608881788174 0.14499488549201 0  1.85625 0 0  1.44375 0 0  1.44375 0.41 0  1.85625 0.41 0  2.13125 0.41 0  0.7562500000000001 0 0  0.89375 0.41 0  0.4812500000000001 0 0  0.34375 0.41 0  0.4812500000000001 0.41 0  0.20625 0.41 0  0.06875000000000001 0 0  1.16875 0 0  0.61875 0 0  0.61875 0.41 0  1.03125 0.41 0  1.71875 0 0  1.99375 0 0  1.99375 0.41 0  1.340625 0.3489494290853124 0  1.134375 0.3489494290853123 0  1.700180620188976 0.3438659752031281 0  2.135782184673599 0.07126652247502523 0  1.668441847249787 0.2129203728327609 0  1.295782514339747 0.2378437748815763 0  0.8233075729931248 0.06842334294821524 0  1.409375 0.3520314716057996 0  0.403505597322782 0.182067236678212 0  0.378125 0.05794951541303489 0  0.3043468223249023 0.1518321115979534 0  2.129248544730567 0.1906135162504124 0  2.060771381434487 0.1989445750470348 0  2.013252586573865 0.1496169464686054 0  1.942766402200229 0.1734448904596831 0  1.895522487186454 0.06076163953489683 0  2.069553871656643 0.06605731020975725 0  1.274680914880868 0.3520219391081363 0  1.614713220494657 0.09473434380863296 0  0.7899021319497519 0.3149123934144827 0  0.69518737419149 0.0634051089053758 0  0.2971740475496061 0.2592172353407536 0  1.72990325744076 0.2380068107952482 0  1.356580098625191 0.2120393231351682 0  2.034370752044885 0.2668681600792073 0  1.51768709249349 0.3426260931494756 0  1.561883724969884 0.1650446847858835 0  1.197344062229598 0.2523725417393646 0  1.804085235518364 0.3468178408964637 0  1.817887819205233 0.2589243285818559 0  1.905897727272727 0.3485060975609756 0  0.6719798073392919 0.2688965171178177 0  0 0.05125 0  0.653125 0.35875 0  0.6396896119294488 0.1627615407790282 0  0.4274150154087412 0.1242548552168279 0  1.192836486056382 0.3562350748565544 0  0.8279124365364005 0.183856489168822 0  1.097485222388854 0.2083571153401724 0  1.28257088594801 0.2944411014911587 0  1.474860187679412 0.2504218616229368 0  1.406767003493824 0.2829282258560709 0  0.446875 0.04619219810344041 0  0.515625 0.04585361801037557 0  0.592043440706648 0.05125 0  1.845656689180403 0.1998310418452388 0  2.144958525570388 0.2909790873294231 0  0.6171090763650112 0.2492366900333857 0  2.2 0.15375 0  0.5145586920831158 0.3648371739579888 0  1.57794966442982 0.3540357145964566 0  0.721875 0.3633107922168974 0  0.0496154796471391 0.333125 0  0.5843750000000001 0.3662560860076676 0  0.5810878747760798 0.1474002776121195 0  1.508991196088596 0.1421783375065625 0  0.8840670607017558 0.2640994375393898 0  0.09776612425612034 0.2204896805326566 0  1.50436820029908 0.06143401634903343 0  1.223857000523521 0.0823554862453532 0  1.153316824384777 0.1289850171317837 0  2.148922302309752 0.1258841779285271 0  0.309375 0.04312325590431198 0  1.621993280276081 0.2841214267927899 0  1.550118654119087 0.2461998729100966 0  1.327182649291491 0.1216967252533594 0  1.051977450479407 0.1221382572915816 0  1.753125 0.04556020050186112 0  1.271875 0.04556020050186116 0  0.9816084133102366 0.05126138213476004 0  1.039051841454368 0.0572224914831029 0  0.9719230514536006 0.3480477870845102 0  1.94956388244759 0.1180512551534177 0  1.949997712993411 0.04965831614304109 0  1.771961817615021 0.1530278789497521 0  1.909246823951428 0.2812757146784527 0  0.2459536687882397 0.04668633953831142 0  1.948575539857022 0.2445328248721197 0  1.697271520964565 0.1233917627620729 0  0.7964897648514618 0.1211426571931604 0  1.065625 0.3689344961371042 0  1.085849084308977 0.3170853572226867 0  0.4702981435440001 0.260434880697798 0  1.577403511714593 0.05463601888079143 0  0.05622663515370135 0.05493816910862376 0  0.3267207591099919 0.3566194660323104 0  0.9003051618565143 0.3564049499960621 0  1.751571320346033 0.3651102912045228 0  0.1583785085108421 0.2994699345738728 0  0.1455283439499995 0.3542795598723423 0  2.2 0.35875 0  0.2347662494194072 0.298325008655211 0  0.1527284455616188 0.1065771775690181 0  0.1382139529076665 0.05427454456341477 0  0.8749341636311069 0.05110114999892954 0  0.643661668713109 0.05693499781019222 0  1.466879772203159 0.3611261772912453 0  1.990280163552011 0.3564754268533217 0  1.17471064520912 0.2990917256188288 0  0.5202693090594349 0.206382495511728 0  0 0.25625 0  2.2 0.25625 0  2.2 0.05125 0  0 0.15375 0  1.853978576207987 0.35875 0  0.9787513713939683 0.1487523696999336 0  0.240625 0.3722153812029779 0  1.515638456102889 0.2882700110184686 0  0.09048297387599738 0.3637717362208066 0  2.150453692751374 0.2387066338105111 0  1.323782677156475 0.04897634338873398 0  0.8074131292871642 0.3624701995505916 0  1.409375 0.03715320121951221 0  1.406484531114799 0.1087852750766809 0  1.134375 0.03715320121951218 0  1.627401732573545 0.04552157221025036 0  0.1170173172005315 0.1427610859166811 0  2.045405893604797 0.1105340662939892 0  1.255408269734577 0.1577307500159216 0  2.028125 0.03707597992059326 0  0.4743610090857199 0.1421513964721819 0  0.9354010469015898 0.250631300585664 0  0.04420832937638274 0.128125 0  0.8922386349349938 0.0992956419364831 0  0.1197849154434487 0.2663398672460083 0  1.248258025468107 0.2565907092181813 0  0.3746885856929528 0.370723531618974 0  1.203125 0.0366132337404304 0  0.5724622277005015 0.2751253816079333 0  0.3365425205162783 0.08395777655057959 0  2.072662025974815 0.2975086504196739 0  0.4581080832182547 0.3648371739579888 0  0.3874522734668214 0.2295447548840689 0  0.7827853612484443 0.04106550386289586 0  1.887722846421017 0.1760882698830035 0  1.472640588990488 0.1118278026240017 0  1.865937103925594 0.2604137786483804 0  1.463913572748262 0.2030442564990043 0  1.376426316059077 0.3186741374914345 0  0.6641993820150034 0.3141688596240831 0  0.2943117490824315 0.2130987422685822 0  0.3478153998082709 0.1666571081082676 0  0.3427990510599805 0.2575950027870776 0  0.7997118993855807 0.2216171933356366 0  
[...]
<PointData  Scalars="f_23-1"> 
<DataArray  type="Float64"  Name="f_23-1"  format="ascii">8.8568237251143586e-05  1.6937318409352847e-07  9.6115310957915624e-33  3.2038139932430167e-32  1.4733926162770747e-03  7.5330598669751114e-04  2.5363798154201918e-04  5.7977908686729707e-05  4.2646490882409554e-05  7.0094666630125270e-05  1.4858276698904063e-04  4.6164548339071597e-04  1.1578884279467166e-03  1.7010174686218084e-03  1.8582655541961703e-12  4.0057913233777700e-11  2.6407750506307396e-05  2.4768957240616850e-07  2.7463601891865693e-04  1.0398910054663051e-06  2.9907673200212414e-03  5.2811379319345452e-21  7.2853178323759807e-22  4.3530601459293682e-07  4.8869991969010811e-09  7.8911484248668389e-17  7.8495033048215426e-16  3.7942946282883562e-27  1.3667208194495377e-26  1.2951636085575510e-17  6.5398333875303544e-23  2.3050600595967004e-05  1.4388670522049378e-08  8.8861518711613130e-13  2.6822914413667785e-31  6.1122570751681810e-04  4.1432410876022176e-27  5.7203039635225824e-30  1.4582383169634913e-29  2.2345032501177144e-31  8.4274314249642071e-07  1.5295688141569528e-03  6.2401201728561540e-24  2.2359356494988660e-15  2.8924664981646797e-19  1.4570046774497539e-24  2.3726526734148812e-18  1.3706305979133482e-06  5.3216674306279267e-09  1.3824935949779831e-10  1.6462329245844729e-05  6.4192188430456165e-08  2.9050591530524794e-07  1.7813463805860757e-03  1.6174414048858387e-14  7.0719907694724253e-11  2.2362563356724574e-13  1.9646973479208613e-20  8.1214012385791428e-11  1.1635741985598804e-20  1.1655097826811924e-07  1.5433316998608768e-14  3.2374924447486691e-03  2.2488987560340402e-25  1.8234752160023013e-29  2.9214019989720196e-24  1.8999756233413655e-04  6.6481977562268533e-06  2.7840870452829730e-05  4.3291855295810714e-05  2.9309967585099073e-06  3.0155444527171853e-29  1.0689910384843709e-05  1.6866223233618461e-04  1.3856780350179651e-03  1.9350067911441196e-05  1.2789686400438842e-27  1.4242445173188046e-16  1.3217947498610340e-18  3.2042049625991900e-07  2.1927162750197273e-09  8.2517414871204042e-08  2.2192912483721569e-26  1.3342027614391542e-22  5.5767851269378765e-14  1.1854506938281101e-31  1.9430474289881560e-12  8.3250126661271393e-19  8.2500409155407753e-10  4.4523229191538186e-17  1.5829728464019230e-12  3.7963066843120938e-25  4.1233109895146705e-03  1.8834839814232065e-22  1.3001990408222223e-03  2.0061949352113228e-06  1.2289672751648682e-09  4.6290454262684529e-03  6.7438355313743114e-16  1.1578313980982535e-05  2.3719530380658861e-06  1.5413961359480488e-31  6.9468550348835716e-30  1.3443976334500855e-14  8.4159083396173715e-10  3.3444705377416091e-19  6.1913643580790411e-07  2.2742164764574270e-24  2.3413018102395270e-22  3.2696415869614407e-12  3.7260301687650138e-28  1.1893288673997987e-06  2.0718888228200053e-03  6.8197684022035385e-06  1.3976883957404264e-08  1.3181559508582639e-05  6.8640801356096486e-04  7.1464279428078771e-05  1.0110222013360394e-04  9.9794127271602839e-17  8.6205774675847564e-16  9.8236203495823976e-16  6.5152574211362886e-07  1.6471097330024960e-07  1.0223563451685121e-21  1.7773385515986325e-11  2.1538269141181164e-11  1.9134896006768388e-11  4.8664834931217998e-14  2.2690345008014662e-21  3.9262090821226914e-03  1.1128441655315147e-12  1.2265590090745405e-09  2.6609189521958344e-06  1.7074260865015605e-20  7.1342595800465935e-06  4.2755573196890961e-06  2.3307709009102707e-03  1.1433480213506832e-08  4.4313590085551729e-04  5.0497563175185422e-05  2.6380360193857144e-09  5.7837666690170868e-04  8.3030621970387672e-06  1.1038660822321105e-19  6.3097880302653590e-20  6.7900195862702912e-24  7.0016165850687237e-26  3.9051315013309356e-18  4.9622829755649677e-17  3.6569249936004790e-25  6.1708510228890586e-31  1.9927585334110440e-08  5.1544514682439728e-08  4.3679649882502528e-07  2.4265842287066555e-03  7.3202614725710136e-04  2.8083638808224622e-03  1.8713434506924801e-07  2.0403753322189881e-13  1.4502142918993973e-07  7.7142102756358829e-05  5.0071778036865407e-10  3.6600992034323873e-23  1.2052994798879133e-28  5.1048794640225499e-28  1.4679863287029836e-14  4.5800103015337480e-11  2.6108043858244219e-21  1.1297832751562119e-30  1.4262762993528693e-20  1.1838379508359184e-13  4.6640885270514597e-08  8.3646113100888376e-16  4.6337240698247396e-04  3.3825221141005159e-06  9.8361723161628997e-05  5.5195711458518394e-30  1.5237448564100699e-28  1.0363848290495403e-27  3.7283626913618362e-26  8.7799432136464053e-26  2.4848023688529901e-29  2.0544053567903472e-13  4.5786904090736491e-20  3.8561095071588874e-06  5.3294613207828518e-07  2.4418703816090031e-03  1.0358373182691552e-21  8.7695416855415986e-15  6.5579882815653414e-28  9.1394385859957316e-18  1.1130426384104183e-18  5.6019358565183980e-12  2.1894013272931531e-23  1.6886551739398224e-23  1.7919085094224210e-25  6.0250033205234326e-05  6.0953871006872473e-07  7.6024285453654721e-05  2.6456467682218492e-05  3.9443982629497818e-05  4.6909448055952893e-12  5.8314826104486249e-07  1.5942568443679779e-10  2.1951918332417731e-13  8.0272196750347744e-17  1.3904478483668741e-15  1.6442542951339157e-06  1.4562561654364524e-06  1.1143071268253105e-06  4.0214467976011956e-24  3.0898973057841350e-30  1.5191006250331069e-04  1.8447842617442058e-31  7.5090712626270817e-04  5.1693951922319644e-19  1.5249338669211609e-05  3.0945170883485542e-04  2.5502187247084462e-04  4.3962340047992054e-05  8.1683899914790687e-18  2.5431000082787921e-07  1.3786179114325841e-04  2.6994412410355722e-18  2.7067043013516041e-13  7.8977532233048284e-12  1.2364977141370283e-30  2.8485736996552563e-06  1.3271072633918946e-19  3.0759893439246805e-18  9.9588534414409450e-15  2.3734378991125423e-10  3.8331594763789188e-23  1.9077229684620992e-14  4.1108744335354126e-10  8.1965435890536958e-11  1.3490517269113165e-08  1.5381255889664480e-26  5.1528317402994556e-27  8.5002183406988253e-23  2.4561903548917123e-25  2.9274693114878915e-06  3.7630330323088157e-26  1.7617654112649458e-21  3.8953857701164173e-07  4.0721225005627845e-10  3.2969891872630461e-10  1.2725246882377725e-03  1.0843089777863796e-19  7.0878211178406918e-07  3.2989642706362531e-03  1.2042318232983777e-07  1.6562529659599380e-22  4.9868868468384989e-03  3.9312161781093263e-03  1.2694908578277835e-31  3.4017912167940002e-03  7.8847131904694170e-06  1.2136791339552869e-06  7.6116607188354038e-09  8.1677237682498184e-07  6.3861061539564569e-17  2.8878437009253328e-27  1.3683193695325890e-11  3.6286787351799753e-04  5.3122136570172269e-05  2.8113191634081840e-31  4.9570734004579650e-32  1.0175646582324440e-05  1.7397720889320914e-24  3.9752551551106679e-09  3.5684917596164548e-03  1.3545894144305923e-17  1.1618352178747056e-03  2.4374974937589803e-30  2.9826071868401422e-15  1.6850504807183071e-06  6.7782151555301788e-17  3.5654033875264343e-16  1.9336847557933919e-12  1.0176100631654332e-20  1.0158559556948997e-05  1.5005261027914820e-28  2.6533777415500182e-13  9.2728358624079417e-29  8.7712311358387847e-05  5.1179618922884168e-08  5.6059743319563124e-06  1.8962851060508488e-08  3.0600279695225411e-03  8.1744901875394209e-13  2.5478868687976134e-03  1.8467683655204589e-13  3.8975055899004437e-04  8.2125519353590994e-06  9.8375712045258167e-29  1.4259277544575349e-03  1.5800142416462859e-03  4.5716782608115818e-08  5.1296840224489020e-25  2.4325422357306538e-17  1.9445295906605653e-24  9.7105395551482557e-17  4.4766425020916967e-15  7.7522562448881625e-05  1.2442332076423718e-03  1.9586816369720857e-04  2.5447359856421909e-03  1.9967812817661306e-06  1.4333562681810098e-21  1.3367376057403763e-22  2.4482166785497389e-30  5.9005987443678270e-06  1.5572682088167418e-06  5.2366981796560485e-09  2.5951324939193944e-09  2.9050684126269151e-10  1.5002107134236367e-15  5.1169778654978722e-05  9.2330072884422094e-29  1.4505697749819749e-19  6.1103271753608373e-05  2.1708940093266094e-05  2.1966735358701921e-23  2.8350311959298073e-05  5.4501215459677002e-27  9.0815366362053150e-31  3.1004200916050665e-30  4.2358268553189464e-29  4.3645002224341762e-07  1.1435289288651699e-07  2.4347686869762879e-20  2.0868695556002334e-23  2.4286316941616978e-27  4.2677924743460793e-07  3.6601503254403320e-15  3.1486067236706981e-12  1.1179559391399636e-18  6.4871244827112070e-20  5.1493284970397280e-19  1.4082739555155871e-07  1.4548136228664389e-22  2.8968971565927513e-22  1.7680583790953368e-09  2.6389727005680560e-09  1.6150422939469340e-31  4.9260788796116921e-31  1.5570296826258106e-04  2.5668665076135416e-06  4.9534799198451057e-06  3.7852224841312390e-08  8.7037717729685156e-08  7.0398458277695661e-20  5.1002522211406660e-24  5.3851467933449485e-25  7.8057333117932901e-20  1.6758932447602092e-26  1.0069738806250893e-03  2.1735497511900273e-05  1.7193015141723344e-24  1.3324822049756194e-11  6.5908702732783100e-22  9.1000743771412286e-21  1.9633415544701701e-09  5.9550785540092308e-06  2.4197913550316587e-03  1.3774632946640255e-28  1.7906603392144195e-08  2.2133403462797035e-18  7.5058090715670570e-13  2.6047918742802139e-29  7.3384883580016722e-18  1.2365830200450075e-06  3.0749395713853411e-10  2.8854201168945971e-04  5.5466587791075241e-19  4.3523322157126938e-06  2.7702048683507750e-03  2.0142406011322269e-03  6.1725874400598634e-06  9.0230176537013072e-12  4.8910563418129343e-07  6.3615954196949713e-11  2.4490000052671560e-11  2.3117393702755299e-05  1.0112239106626872e-30  4.4253570394473116e-14  7.0345683412679130e-28  6.8999041075300901e-07  6.5746411695953277e-26  3.1839104209303296e-25  1.6600653146643752e-26  2.5614672216645843e-26  4.3217496002465722e-18  5.3713317048890315e-22  1.4204919721871766e-21  1.0363790074446618e-20  1.7399545525824145e-07  2.4755997652669233e-07  3.4085481413500922e-03  1.0004361285068486e-04  2.2413760681569994e-28  4.5242420629462112e-16  1.2886049822050829e-05  8.6220058455644578e-09  1.4510865697909810e-03  8.4984752033863393e-07  4.0013191318057978e-03  2.4342223575469212e-23  1.1275011343791731e-06  2.9042349873283499e-08  4.0486504653252690e-05  2.6971657482821800e-17  1.2418518826058791e-05  2.2472494203495103e-11  4.3633176265301367e-08  1.7331126813660106e-28  2.9933161737093425e-16  3.4348918743387384e-03  3.3839212329278101e-03  1.5391984654512015e-17  2.7753866005674342e-03  6.5497070426657927e-05  2.5813289693564365e-04  3.5088484110878494e-05  1.2532700973880932e-04  2.5292533477344793e-05  1.1081986960956979e-03  3.6665455281442900e-04  2.8037532341754066e-07  2.4521657598982871e-05  4.6831562746717271e-19  3.8133648139544173e-22  1.8401533875149119e-13  4.1187557826781412e-22  4.6386050925808991e-14  1.6732477353957724e-15  4.8563307195635474e-16  5.7381699445605064e-11  4.5665971593703256e-21  1.0564452054416300e-14  6.9713809427103106e-27  6.5823208772803568e-06  3.1222516044201467e-03  1.2524701634884137e-12  2.5135202034294770e-13  2.3259939350516707e-06  4.2752643636175180e-03  2.8401030772309652e-19  1.4427367045489829e-20  2.4549028947782789e-03  2.1986536166369430e-05  2.2793157542083352e-03  1.3622627041219413e-06  7.4028113309448234e-04  4.1990152397469226e-20  2.9542325431617102e-19  2.9202337082888519e-18  8.7777381392807747e-06  3.6239782967193475e-25  1.0686151780689377e-05  1.6513658146963014e-28  8.9727147069313997e-28  1.0696073926091306e-14  3.5206998810977531e-04  1.7668447616922796e-29  1.1243043042360789e-29  1.1303469353476696e-30  1.1985984510739344e-22  5.9642883386482501e-19  1.6600775181294930e-09  1.1140754795929528e-09  4.4248033746299638e-09  2.2789518170674217e-07  1.8054218844147605e-16  1.7285014803057157e-10  5.9945915000926313e-10  1.8821825863981594e-09  2.1922554114622693e-09  1.0482072076076688e-08  4.1274663663484299e-31  3.9393035089231756e-30  8.4030748269495183e-11  2.3540152195045584e-26  6.1040418894761165e-30  1.0987115591045841e-05  3.6229444282907640e-12  4.7032204448124097e-08  1.2868156723424268e-24  2.5650777716792713e-23  2.5133080414819033e-04  3.0979320546117141e-06  1.7966014223604692e-03  6.8394617451667126e-09  4.6813246427296844e-04  2.7124166682095587e-08  6.6877418753063101e-07  1.0881006146900809e-11  1.2301581516407753e-11  3.6528471847118208e-14  2.9976758137765262e-15  2.6222468342514149e-15  4.7183661829580773e-11  3.2265203898544082e-16  5.8918869237536831e-30  7.6995339487887344e-13  1.1013795055823091e-06  4.8963043170676085e-04  8.0036393170624406e-04  9.7693865758605947e-05  1.6824963558125314e-06  1.0212478856783032e-06  9.1601082635576027e-04  7.3474675213792582e-04  3.1696567067246526e-04  1.6444200111976568e-04  2.1750299074393883e-24  4.6441031601933750e-14  1.6608073445490761e-08  6.7720804285290226e-06  3.4073768622409030e-05  1.2865748529741113e-05  1.0604370480182572e-15  9.0984734518864303e-22  3.6100162620030916e-27  6.5433018970181981e-28  2.1504546137776300e-26  5.1194724710659763e-14  4.9173778922803822e-11  5.6748591007899391e-13  9.8554047765185634e-07  2.5922260091935568e-16  6.1238138255647722e-12  3.1555339340034897e-32  8.4852028208100789e-31  6.2569066191112022e-13  2.0888328487918789e-17  1.0907859315585026e-17  4.5426508449380915e-23  1.4524638343691016e-10  9.7306733444700956e-24  7.2546243848103610e-06  1.6890400443610560e-16  3.7161534315211045e-08  1.2409771034835633e-31  3.7850105221187885e-10  1.9892373875149308e-03  5.9171882144916301e-07  1.0996374627283529e-03  2.2089497133188635e-07  3.0080548862860333e-03  7.8003961557593356e-07  1.0161611460935975e-03  9.3436247758906845e-08  1.0106439206870614e-08  1.1810210433950858e-06  1.4381978405684370e-04  4.5532902262412282e-04  1.8242611419458733e-07  2.9991093419916285e-07  3.4641421449457563e-05  5.5830008256909794e-11  4.9370665988738028e-14  3.6484345567324858e-21  6.3674184474095905e-28  3.9381763157338587e-15  2.5389500697256346e-29  2.5533500828915271e-27  6.7472171516253705e-22  7.6377201547735467e-28  1.2475017545667329e-07  1.1937594215230526e-16  6.4484254009592435e-12  8.8658152990875760e-06  2.6246182989858494e-14  6.6475885718160326e-14  1.5165528718295237e-11  4.7913682728014038e-18  3.1863967724625217e-17  2.1521771034602325e-26  2.2077920809796016e-03  2.4919843487774966e-16  2.3075294828610050e-16  3.9207297608481636e-21  4.9902831196870954e-25  2.5551627300725420e-21  1.0054565416712596e-05  5.0723002662296655e-05  3.9795626549355424e-24  1.6439684197329921e-20  4.6619902718981467e-14  1.0597000281659038e-25  1.2306818848469704e-17  1.5297365840739778e-06  6.9858855411034951e-10  5.9527721091803248e-09  3.7810926072640412e-05  3.4753486377704294e-03  2.0557840272665013e-20  1.0578480285385705e-04  1.7260386282779169e-29  1.6984670083566636e-29  2.2747339929001515e-10  3.1593340070113556e-05  4.9370573119113188e-15  1.2110660897538613e-03  7.6161004989955880e-13  1.0615163135944444e-25  1.2081713397305918e-25  1.8546808428656048e-03  3.9891445297187516e-29  2.5959037423249462e-06  1.1337063854758576e-04  3.0583257130347791e-05  1.2181387651847864e-07  5.0889145035688212e-28  1.0369864371912355e-23  5.6813165532818454e-10  6.8349342350258011e-24  4.2537014883277644e-21  5.4190229346176496e-24  5.3950110117466026e-27  1.0246729070772887e-30  1.1937704278548526e-05  1.2413976549512486e-08  5.0754135338000687e-19  1.3749820018633218e-07  4.2045930452125173e-08  1.8315192052916992e-19  1.0334505388286975e-20  2.5183031569262886e-05  7.7388810551725819e-26  2.0292985986303459e-03  5.7647143120444485e-19  1.6337095474411459e-03  3.1138437212553460e-05  6.3884509659410259e-07  2.0774744801192574e-05  1.4375874670476597e-19  2.3332568862800979e-11  4.3131576369290348e-18  4.3915688157402607e-06  3.5951856926696693e-15  4.3479356240614759e-09  1.1489136875567751e-07  1.2260101771131664e-04  3.7126556985592695e-25  3.9925287165150940e-05  4.0863426898311912e-26  9.5454966838892094e-13  3.4967173953847002e-08  8.2073720620155727e-20  2.3348982957855158e-23  6.5669923104948054e-11  5.4136662306051969e-12  5.7535802865580114e-04  4.6168671267233007e-22  4.1958368780905420e-07  4.5817017416589605e-13  2.3820729835617817e-12  1.3481747491288613e-11  1.5317060991616418e-20  1.1277722750615651e-17  5.3657518842311091e-23  7.5786394526261829e-24  3.4371708979937989e-29  1.4534242598725515e-18  2.7387723812891430e-27  2.6614171453067059e-07  3.2157324850857099e-07  2.0963134699551363e-18  1.1540481399538357e-25  1.3030039019900772e-13  3.0279846126295149e-03  1.7508273484408093e-03  2.3288044185216498e-18  1.0439068567652648e-06  3.6677635800498429e-03  1.5424120739161076e-03  3.4739999449396139e-27  1.4324422021477106e-03  6.9365831193065548e-15  3.6608373487080040e-03  6.6167803401641937e-14  1.6198712313323449e-24  4.9420668303259755e-08  3.3260944619965382e-05  3.0202480038040891e-03  1.6750736880097582e-06  6.0247154616355642e-30  8.8654316749839213e-06  1.2943185494232467e-24  1.9019950916408954e-12  3.7732452826710962e-20  1.0545436674459083e-24  2.7073534134259303e-31  2.3483188712926927e-10  3.9804155069303354e-06  1.1457304605209910e-10  5.0701333817664065e-11  2.2025049842389442e-07  4.3433209183091141e-20  2.9425308398194501e-05  2.4402814815867892e-31  3.2633813318990854e-09  1.5650719762020782e-28  3.0938197578924650e-10  3.8288430336392578e-03  5.7748430085896602e-03  4.7727174705241162e-25  1.8360009512526051e-07  2.1365030405930078e-15  1.9431323829084379e-16  8.6417051176927009e-17  3.3278369412460687e-17  1.5485818672521898e-17  1.1665837884323050e-24  1.4603114906281454e-08  3.7100940199516290e-07  5.6332765886651610e-09  2.9242861317057727e-06  4.0212562573379303e-07  4.5926251741870259e-15  7.9913293033887393e-16  5.0056427909166298e-06  6.8028645141080833e-12  1.0066060214779664e-24  5.7570299281477371e-08  9.3490787737955325e-05  2.3207932712669894e-04  2.2340548194893183e-05  1.3400961174974707e-31  5.2324494055170723e-03  7.5438272548661456e-13  2.5038671964964478e-13  7.3436401693039034e-07  8.2971564728540481e-14  6.5579837149323628e-06  1.5945069691342699e-22  6.2713219522363406e-07  1.1525809705714814e-10  2.0213573888949405e-06  2.6025528352656847e-04  6.0990323756709546e-28  2.9661632160470780e-11  1.0560285188002795e-06  2.6210638169280540e-06  2.8489026873900727e-17  5.4376516583592864e-20  4.1113278724511122e-06  1.1160342461003422e-06  5.9669976546929716e-07  2.9589601625911037e-06  2.3366212362275901e-03  3.7400983809255703e-23  3.7020627236196688e-30  6.5278674631312162e-30  7.9008646635432352e-31  4.4503221519476814e-04  1.3527615189821745e-24  5.1170911799300070e-27  4.0359302860142649e-10  3.7497447946529162e-15  4.2502579905927836e-23  7.7451912881296953e-24  1.5027483500399468e-19  1.1140254032936971e-05  2.9742363996392879e-12  3.4651164402205175e-12  6.8551211875895456e-06  1.5235228422859315e-14  2.0280634757833131e-12  9.5850797681172490e-10  5.8810104045272468e-10  2.2427025843241991e-06  9.2392383901226504e-04  1.2211790967038747e-03  2.0513561356086311e-14  1.0169091630496173e-06  3.3971581209680227e-06  3.2062749935682318e-07  2.4431893370327803e-03  1.6830150229306886e-06  5.6120076977601786e-12  2.8612729664226478e-03  2.6701521897763823e-06  2.0553941563961930e-31  9.0950050089855632e-06  3.8399375341059790e-05  8.3737974705896721e-19  1.5212913121155782e-19  2.5187587895729780e-03  5.6090252320191276e-26  1.5886257394371399e-04  1.6481719240283414e-03  3.9276599028183558e-05  2.1557443871119131e-03  4.8218775002142287e-06  2.3006368407766736e-06  3.1486902990706294e-26  4.3183243027494344e-29  4.1579829407353700e-04  7.0397539872950402e-18  1.6444498642711167e-18  9.4062575378683161e-19  1.3658498806026649e-14  5.8774299717030377e-13  9.7218419121547538e-20  1.6147792419330524e-23  2.9905506283695011e-04  5.6353083734297867e-23  2.1544594726360534e-26  5.4178600092997451e-27  2.7939759810446511e-03  1.4211225346097170e-04  6.9131146154823484e-22  1.2673887213973758e-06  1.1540136078554272e-22  2.8167526635145027e-12  5.0730459610536397e-16  3.4119621787526281e-08  4.7539760268547742e-07  6.4023688770038981e-25  1.5659573971663872e-06  4.5036134255441850e-13  2.4287521075674477e-04  1.8066481609757875e-03  5.8809816219824923e-21  5.1187134243693