<?xml version="1.0"?>
<VTKFile type="UnstructuredGrid"  version="0.1"  >
<UnstructuredGrid>
<Piece  NumberOfPoints="2446" NumberOfCells="4585">
<Points>
<DataArray  type="Float64"  NumberOfComponents="3"  format="ascii">0 0.41 0  0 0 0  2.2 0 0  2.2 0.41 0  0.2404508497187474 0.2293892626146237 0  0.25 0.2 0  0.2404508497187474 0.1706107373853764 0  0.2154508497187474 0.1524471741852423 0  0.1845491502812526 0.1524471741852423 0  0.1595491502812526 0.1706107373853764 0  0.15 0.2 0  0.1595491502812526 0.2293892626146237 0  0.1845491502812527 0.2475528258147577 0  0.2154508497187474 0.2475528258147577 0  1.1 0 0  1.1 0.41 0  0 0.205 0  0.55 0 0  0.55 0.41 0  0.275 0 0  0.275 0.41 0  1.65 0.41 0  1.65 0 0  0.8250000000000001 0.41 0  0.8250000000000001 0 0  1.375 0 0  1.375 0.41 0  1.925 0 0  1.925 0.41 0  1.5125 0.205 0  1.7875 0.205 0  0.6875 0.205 0  0.9625000000000001 0.205 0  1.2375 0.205 0  2.2 0.205 0  0.4687002074688797 0.2068568464730291 0  1.99375 0.2152743902439024 0  2.0625 0 0  2.0625 0.41 0  2.2 0.3075 0  0.4125 0 0  0.4125 0.41 0  1.7875 0.41 0  1.375 0.1486128048780488 0  1.5125 0 0  1.7875 0 0  1.5125 0.41 0  0.8250000000000001 0.2613871951219511 0  0.9625000000000001 0.41 0  0.9625000000000001 0 0  0.6875 0.41 0  0.6875 0 0  0.1375 0 0  0.1375 0.41 0  1.2375 0 0  1.1 0.1486128048780487 0  1.2375 0.41 0  1.65 0.1486128048780487 0  1.126715909090909 0.2793064024390244 0  1.676715909090909 0.2793064024390244 0  0.8517159090909092 0.1306935975609756 0  1.348284090909091 0.2793064024390244 0  0.34375 0.3032389320646208 0  1.894702181800738 0.1282910975492754 0  2.092797818199262 0.1282910975492754 0  1.85625 0.3075 0  0.61875 0.3075 0  0.61875 0.1025 0  0.3648540804333487 0.1240075933101478 0  0 0.3075 0  0 0.1025 0  2.099172119769978 0.25625 0  0.48125 0.09238439620688085 0  0.5781001037344399 0.2059284232365146 0  0.48125 0.3196743479159776 0  0.7265881057911006 0.3055240343720796 0  1.99375 0.08395950269330846 0  1.459960956013612 0.3075 0  1.569025960719943 0.2986889805672169 0  0.75625 0.08213100772579164 0  1.03125 0.3278689922742084 0  0.923871252904788 0.3078247185783941 0  1.959375 0.3126371951219512 0  1.749222215368287 0.1025 0  1.275777784631713 0.1025 0  2.2 0.1025 0  1.225938124459196 0.3075 0  1.550777784631713 0.1025 0  1.000777784631713 0.1025 0  1.44375 0.07430640243902442 0  1.16875 0.07430640243902437 0  1.899250267340833 0.2229966846119207 0  0.1020898364287272 0.3140258291809757 0  1.766482954545455 0.2934032012195123 0  0.3405058858996321 0.2119987970531874 0  0.7710785630958338 0.1710968191298857 0  1.046078563095834 0.2389031808701144 0  0.2 0.3400647632937836 0  1.421109702350723 0.2261157654379721 0  0.2800464974185557 0.08982544815605742 0  0.098916018031319 0.09171660955420841 0  2.13125 0 0  2.118919042110979 0.3422084711244843 0  1.30625 0.41 0  0.89375 0 0  1.597888256393107 0.2173787389261347 0  0.20625 0 0  1.829299675393195 0.07400700849299596 0  1.71875 0.41 0  1.16875 0.41 0  2.038220665644273 0.332420740103091 0  0.34375 0 0  0.417496017710808 0.2696595573092803 0  0.2 0.07687845740457822 0  0.9295982307099278 0.1343158415898188 0  0.07390688010811153 0.1697064032433452 0  0.5238366813727013 0.2578302467013575 0  0.05452951551825875 0.25625 0  0.5229630068078351 0.1548816096928243 0  1.452769549894695 0.1548122580621249 0  1.369219062229598 0.07430640243902442 0  1.30625 0 0  0.8504409521244898 0.3356935975609756 0  0.8821881244591965 0.205 0  1.720943423819132 0.1714577452753128 0  1.157188124459196 0.205 0  1.094219062229598 0.07430640243902437 0  1.03125 0 0  1.304056576180868 0.1714577452753128 0  1.67579304192913 0.07430640243902437 0  0.2751941921308361 0.3346083473122598 0  1.209670467133757 0.1362100266964769 0  1.025335513626278 0.1700681449722324 0  0.7562500000000001 0.41 0  1.58125 0 0  0.7567170593862014 0.2409196493502535 0  0.6926714215682891 0.1272249611432207 0  0.4139715849905988 0.3397932387114203 0  0.9840787304190477 0.2717749043358119 0  0.06875000000000001 0.41 0  0 0.35875 0  0.9281250000000001 0.06276726142697993 0  0.5507396469029935 0.3219409231578227 0  0.5504468037989405 0.09136885600634273 0  1.58125 0.41 0  1.631724228912893 0.3381867502687533 0  1.825608881788174 0.14499488549201 0  1.85625 0 0  1.44375 0 0  1.44375 0.41 0  1.85625 0.41 0  2.13125 0.41 0  0.7562500000000001 0 0  0.89375 0.41 0  0.4812500000000001 0 0  0.34375 0.41 0  0.4812500000000001 0.41 0  0.20625 0.41 0  0.06875000000000001 0 0  1.16875 0 0  0.61875 0 0  0.61875 0.41 0  1.03125 0.41 0  1.71875 0 0  1.99375 0 0  1.99375 0.41 0  1.340625 0.3489494290853124 0  1.134375 0.3489494290853123 0  1.700180620188976 0.3438659752031281 0  2.135782184673599 0.07126652247502523 0  1.668441847249787 0.2129203728327609 0  1.295782514339747 0.2378437748815763 0  0.8233075729931248 0.06842334294821524 0  1.409375 0.3520314716057996 0  0.403505597322782 0.182067236678212 0  0.378125 0.05794951541303489 0  0.3043468223249023 0.1518321115979534 0  2.129248544730567 0.1906135162504124 0  2.060771381434487 0.1989445750470348 0  2.013252586573865 0.1496169464686054 0  1.942766402200229 0.1734448904596831 0  1.895522487186454 0.06076163953489683 0  2.069553871656643 0.06605731020975725 0  1.274680914880868 0.3520219391081363 0  1.614713220494657 0.09473434380863296 0  0.7899021319497519 0.3149123934144827 0  0.69518737419149 0.0634051089053758 0  0.2971740475496061 0.2592172353407536 0  1.72990325744076 0.2380068107952482 0  1.356580098625191 0.2120393231351682 0  2.034370752044885 0.2668681600792073 0  1.51768709249349 0.3426260931494756 0  1.561883724969884 0.1650446847858835 0  1.197344062229598 0.2523725417393646 0  1.804085235518364 0.3468178408964637 0  1.817887819205233 0.2589243285818559 0  1.905897727272727 0.3485060975609756 0  0.6719798073392919 0.2688965171178177 0  0 0.05125 0  0.653125 0.35875 0  0.6396896119294488 0.1627615407790282 0  0.4274150154087412 0.1242548552168279 0  1.192836486056382 0.3562350748565544 0  0.8279124365364005 0.183856489168822 0  1.097485222388854 0.2083571153401724 0  1.28257088594801 0.2944411014911587 0  1.474860187679412 0.2504218616229368 0  1.406767003493824 0.2829282258560709 0  0.446875 0.04619219810344041 0  0.515625 0.04585361801037557 0  0.592043440706648 0.05125 0  1.845656689180403 0.1998310418452388 0  2.144958525570388 0.2909790873294231 0  0.6171090763650112 0.2492366900333857 0  2.2 0.15375 0  0.5145586920831158 0.3648371739579888 0  1.57794966442982 0.3540357145964566 0  0.721875 0.3633107922168974 0  0.0496154796471391 0.333125 0  0.5843750000000001 0.3662560860076676 0  0.5810878747760798 0.1474002776121195 0  1.508991196088596 0.1421783375065625 0  0.8840670607017558 0.2640994375393898 0  0.09776612425612034 0.2204896805326566 0  1.50436820029908 0.06143401634903343 0  1.223857000523521 0.0823554862453532 0  1.153316824384777 0.1289850171317837 0  2.148922302309752 0.1258841779285271 0  0.309375 0.04312325590431198 0  1.621993280276081 0.2841214267927899 0  1.550118654119087 0.2461998729100966 0  1.327182649291491 0.1216967252533594 0  1.051977450479407 0.1221382572915816 0  1.753125 0.04556020050186112 0  1.271875 0.04556020050186116 0  0.9816084133102366 0.05126138213476004 0  1.039051841454368 0.0572224914831029 0  0.9719230514536006 0.3480477870845102 0  1.94956388244759 0.1180512551534177 0  1.949997712993411 0.04965831614304109 0  1.771961817615021 0.1530278789497521 0  1.909246823951428 0.2812757146784527 0  0.2459536687882397 0.04668633953831142 0  1.948575539857022 0.2445328248721197 0  1.697271520964565 0.1233917627620729 0  0.7964897648514618 0.1211426571931604 0  1.065625 0.3689344961371042 0  1.085849084308977 0.3170853572226867 0  0.4702981435440001 0.260434880697798 0  1.577403511714593 0.05463601888079143 0  0.05622663515370135 0.05493816910862376 0  0.3267207591099919 0.3566194660323104 0  0.9003051618565143 0.3564049499960621 0  1.751571320346033 0.3651102912045228 0  0.1583785085108421 0.2994699345738728 0  0.1455283439499995 0.3542795598723423 0  2.2 0.35875 0  0.2347662494194072 0.298325008655211 0  0.1527284455616188 0.1065771775690181 0  0.1382139529076665 0.05427454456341477 0  0.8749341636311069 0.05110114999892954 0  0.643661668713109 0.05693499781019222 0  1.466879772203159 0.3611261772912453 0  1.990280163552011 0.3564754268533217 0  1.17471064520912 0.2990917256188288 0  0.5202693090594349 0.206382495511728 0  0 0.25625 0  2.2 0.25625 0  2.2 0.05125 0  0 0.15375 0  1.853978576207987 0.35875 0  0.9787513713939683 0.1487523696999336 0  0.240625 0.3722153812029779 0  1.515638456102889 0.2882700110184686 0  0.09048297387599738 0.3637717362208066 0  2.150453692751374 0.2387066338105111 0  1.323782677156475 0.04897634338873398 0  0.8074131292871642 0.3624701995505916 0  1.409375 0.03715320121951221 0  1.406484531114799 0.1087852750766809 0  1.134375 0.03715320121951218 0  1.627401732573545 0.04552157221025036 0  0.1170173172005315 0.1427610859166811 0  2.045405893604797 0.1105340662939892 0  1.255408269734577 0.1577307500159216 0  2.028125 0.03707597992059326 0  0.4743610090857199 0.1421513964721819 0  0.9354010469015898 0.250631300585664 0  0.04420832937638274 0.128125 0  0.8922386349349938 0.0992956419364831 0  0.1197849154434487 0.2663398672460083 0  1.248258025468107 0.2565907092181813 0  0.3746885856929528 0.370723531618974 0  1.203125 0.0366132337404304 0  0.5724622277005015 0.2751253816079333 0  0.3365425205162783 0.08395777655057959 0  2.072662025974815 0.2975086504196739 0  0.4581080832182547 0.3648371739579888 0  0.3874522734668214 0.2295447548840689 0  0.7827853612484443 0.04106550386289586 0  1.887722846421017 0.1760882698830035 0  1.472640588990488 0.1118278026240017 0  1.865937103925594 0.2604137786483804 0  1.463913572748262 0.2030442564990043 0  1.376426316059077 0.3186741374914345 0  0.6641993820150034 0.3141688596240831 0  0.2943117490824315 0.2130987422685822 0  0.3478153998082709 0.1666571081082676 0  0.3427990510599805 0.2575950027870776 0  0.7997118993855807 0.2216171933356366 0  
[...]
<PointData  Scalars="f_23-1"> 
<DataArray  type="Float64"  Name="f_23-1"  format="ascii">8.0339617156030698e-05  1.2168923239579125e-07  6.1858799713241071e-34  2.1068234388194082e-33  1.4167838247612905e-03  6.8696566313020016e-04  2.2153989336026145e-04  5.1844021073822429e-05  4.1095330706651542e-05  6.8294180041776227e-05  1.4655348962241456e-04  4.5932373754574961e-04  1.1553556701566223e-03  1.6865996168502007e-03  4.1883588369051300e-13  9.5141673486226551e-12  2.4550395475660270e-05  1.2889717120351987e-07  1.7793846750200024e-04  8.2926473233564709e-07  2.8223482561643182e-03  6.0734467677139346e-22  8.0293776729854302e-23  1.6662166377140383e-07  1.6841810365432269e-09  1.2218872420248122e-17  1.2608802381973910e-16  3.1762947030497480e-28  1.1632516704754718e-27  1.8150997999116915e-18  6.6427150587068864e-24  1.2104385151239223e-05  4.5093452378687628e-09  1.8007661888057753e-13  1.8146787225188953e-32  4.8550557862763475e-04  3.3864231419093400e-28  4.1887654770706854e-31  1.0702455018587953e-30  1.5080622840202228e-32  5.7763198501091377e-07  1.2440412552046855e-03  5.9701187316447463e-25  3.7061656196214189e-16  3.7585090103461616e-20  1.3757502378268110e-25  3.2219700187448516e-19  5.5787064194191948e-07  1.5874261334866729e-09  3.8500366129602116e-11  8.1618128480636761e-06  2.7533865193926231e-08  2.1060126644833886e-07  1.7510536693080749e-03  3.0225973815735684e-15  1.7424871341690618e-11  4.3671223044375072e-14  2.3108963852653891e-21  1.9603709283063110e-11  1.3429213901407521e-21  4.3512688208549557e-08  2.6951491003337980e-15  3.1112163514327639e-03  2.0119559053208379e-26  1.3355840205806700e-30  2.7701868598856619e-25  1.1661991236154367e-04  3.7154135150798037e-06  2.2188587310022831e-05  3.9662265576175215e-05  2.4897567756497245e-06  2.2384835215928434e-30  7.2544617002423320e-06  1.1009882612496348e-04  1.1061710582450724e-03  9.5612576826142199e-06  1.0295465583582647e-28  2.1421796250450648e-17  1.7328281790974389e-19  1.3768621464423377e-07  6.1869668089801079e-10  2.8146282036107248e-08  1.8936933569568704e-27  1.3913918345636525e-23  1.0501371738538530e-14  7.9236055949498767e-33  4.0433068304912212e-13  1.0955984513086463e-19  2.3543688325184595e-10  6.6565030975529054e-18  3.4411223970067268e-13  3.4170033077444778e-26  4.1194196155702597e-03  1.9632123898877343e-23  1.2012377867559115e-03  8.8364252325530895e-07  3.3690844987520657e-10  4.6169775910450449e-03  1.0629050355600062e-16  1.0373903540806221e-05  1.9597359044767168e-06  1.0420630742068287e-32  5.0423449685867852e-31  2.3709891451786755e-15  2.5809718392043091e-10  4.2174195145079445e-20  4.8206435260779037e-07  2.1658426292192641e-25  2.4886000166091619e-23  7.0615080160001069e-13  2.9193112885427039e-29  9.0603950448234496e-07  1.8362573064462948e-03  6.1622307376617945e-06  4.5577726321781461e-09  1.1844778390142803e-05  5.0708536698980758e-04  6.8871256281429155e-05  7.0238094941965897e-05  1.4972089035287660e-17  1.4179812189709821e-16  1.6476986625500080e-16  2.5215096612972638e-07  5.9466392380514388e-08  1.1127326394122788e-22  4.0572899373956863e-12  5.2534391659945132e-12  4.8172981004243762e-12  8.9157343209876628e-15  2.5632772111480073e-22  3.8734418584089030e-03  2.3117034691580086e-13  3.4296174313814072e-10  1.1417793628435623e-06  2.0580418258337847e-21  3.3012495362605714e-06  2.1377845327830094e-06  2.0439911768460697e-03  3.4908983826147488e-09  4.2952549508069247e-04  4.4563554482396934e-05  8.3074865777730870e-10  4.0555037448475740e-04  5.1100398437640356e-06  1.3733153233173650e-20  7.6583568644574854e-21  6.5494329257604284e-25  6.1922571881673123e-27  5.4356410831791812e-19  7.3609873934101009e-18  3.3396273957622533e-26  4.3117751195878425e-32  7.6776490072293815e-09  1.7433639766432802e-08  2.5975605482331795e-07  2.1533734975002546e-03  5.3444211105581362e-04  2.7336769754843890e-03  1.3405301753187441e-07  4.2083322858414617e-14  6.8641823345803775e-08  4.3860684520581409e-05  1.3369277188493393e-10  3.7516877304214383e-24  9.3439570881441518e-30  4.0520118239617294e-29  2.5800135534338836e-15  1.0909970599717893e-11  2.9154012021484271e-22  7.9195937252304175e-32  1.6527470778432656e-21  2.2231885010461935e-14  1.7598079688200378e-08  1.3399027885258570e-16  3.9289320279338067e-04  2.6626410489977451e-06  8.3407601020359576e-05  3.9562092388508632e-31  1.1642273930024694e-29  8.2386245829976175e-29  3.1980765002580791e-27  7.7919713218741350e-27  1.8533955495533869e-30  3.9665630621919075e-14  5.5613281216779092e-21  1.6793226034813865e-06  2.4999615076904403e-07  2.3945130903606838e-03  1.1249800120783187e-22  1.5068525327016147e-15  5.1652001315757892e-29  1.2732513011991923e-18  1.4598656545687251e-19  1.2125889418456812e-12  2.1818297892832383e-24  1.6523275257070657e-24  1.6016930863526922e-26  3.3180947169181653e-05  4.8039870848795902e-07  4.2807016952019573e-05  1.4948182697185886e-05  2.9826325911714481e-05  1.0205906471858952e-12  2.3200520146612425e-07  4.0039821198987846e-11  4.2088323822439672e-14  1.1851045293351017e-17  2.2385448663570956e-16  1.1231450404195140e-06  8.8462193391200441e-07  6.0418361313675795e-07  3.8211592153902461e-25  2.2008407096841944e-31  9.3057851812413221e-05  1.2382263683115399e-32  5.4879148255207596e-04  6.6341257800868642e-20  7.4634200122447906e-06  3.0478182545968510e-04  1.6309061719313987e-04  2.7453748305979162e-05  1.1378416954968218e-18  9.2727670472030950e-08  1.3580071733838666e-04  3.7145505873465682e-19  5.4648048247674895e-14  1.7856287820251581e-12  8.6192531470076463e-32  2.4170642306169870e-06  1.6303621857667565e-20  4.1270504354388421e-19  1.7459994229405968e-15  6.2898366643013357e-11  3.9357861586975319e-24  3.5493243015699127e-15  1.1798588895926083e-10  2.1524135523497503e-11  4.1875493698700706e-09  1.2977941015675973e-27  4.3027288998257148e-28  8.7063945452212807e-24  2.1929266711230374e-26  2.5487732972426640e-06  3.2214125411697211e-27  1.9488607447658428e-22  1.6014305116672092e-07  1.0737705145133481e-10  8.4831135983050774e-11  1.0370484171943861e-03  1.3637282609640884e-20  5.6016627064730024e-07  3.1318438232131101e-03  4.2260134463870565e-08  1.7318546289829581e-23  4.9835592141508076e-03  3.9202654351895606e-03  8.5423098854446516e-33  3.3942505878936597e-03  7.0793701084544026e-06  9.7266606835102863e-07  2.5955381034255077e-09  4.1126519947704827e-07  9.4752322279340724e-18  2.3680070469798092e-28  3.0687931657710992e-12  2.6377411961078285e-04  5.0490113642887092e-05  1.9032634737089254e-32  3.2846094906144345e-33  9.1233915188741758e-06  1.6374826858379156e-25  1.1950558056851308e-09  3.5013432115108181e-03  1.8963099291698678e-18  1.1523446274337504e-03  1.7233649203551397e-31  5.1840623156764516e-16  6.9990644808982843e-07  1.0398821369299798e-17  5.6196355974632554e-17  4.3281687712656930e-13  1.2055877335651942e-21  9.0554759727304105e-06  1.1488895118624129e-29  5.1825606475852498e-14  7.1452471332886571e-30  6.4538822869565494e-05  1.7035729400193426e-08  4.8815971076723754e-06  6.4961105533144238e-09  3.0574316151198884e-03  1.6443010859710964e-13  2.2803475282743776e-03  3.7630128471290012e-14  2.6300915572729410e-04  6.9061191130963297e-06  7.4915177299937487e-30  1.1465484717230875e-03  1.4250302961458154e-03  1.8028045048800313e-08  4.6608210651556392e-26  3.5218232563936905e-18  1.8159990989344590e-25  1.4441627838497555e-17  7.5180256255113568e-16  4.3360318594417136e-05  1.1637233016287508e-03  1.6710060308165173e-04  2.4361160419458538e-03  8.4711607684459718e-07  1.5677253915804357e-22  1.3763313152471908e-23  1.7586023506939308e-31  2.8509095111206230e-06  7.1130962274199603e-07  1.5476739916088993e-09  7.3466545787240414e-10  7.4288531969110312e-11  2.4375765126598954e-16  4.4461669353598210e-05  7.0700119282754484e-30  1.8018786416985782e-20  3.5240370828925484e-05  1.1007376656077572e-05  2.1764986894742222e-24  2.6427865659323079e-05  4.4866273523963417e-28  6.3286045556041448e-32  2.2279702893122855e-31  3.2012222876703110e-30  3.3117636733494466e-07  4.8840730428714887e-08  2.9155628260615595e-21  2.0772401644087421e-24  1.9760174549357691e-28  3.2036772786142617e-07  6.0940748825799912e-16  6.7225870426697551e-13  1.5070528182119201e-19  7.8489257348332026e-21  6.6869385048846666e-20  5.0041308179976763e-08  1.5282159516743746e-23  3.1345599143001786e-23  5.0247631030878643e-10  7.5824125057647876e-10  1.1000792833671643e-32  3.4204859507974011e-32  1.4617056896537182e-04  1.3107230915048077e-06  2.2285703937213398e-06  1.2684839950183555e-08  3.1065173785643539e-08  8.4851389930803961e-21  5.0011232959743362e-25  4.9451844580612793e-26  9.8401916621708944e-21  1.4288570532797240e-27  8.5669319762741850e-04  2.0358968223448652e-05  1.6271335127283076e-25  3.2622541164680247e-12  7.0991343165159377e-23  1.0562072637102243e-21  5.9425895213695271e-10  4.3622224571109054e-06  2.3732971610101140e-03  1.0515538097522278e-29  5.7079175714197509e-09  2.9489125432377017e-19  1.5261160012208190e-13  1.9237505634651422e-30  1.0503611646704361e-18  1.0142000536519200e-06  7.9990668885010061e-11  2.2988804783153125e-04  7.0940818103774206e-20  1.9196720169090067e-06  2.5482311444395894e-03  1.7245787382319530e-03  2.8942628046759286e-06  2.0921866606224978e-12  1.8721543898618635e-07  1.5243361781444842e-11  5.7131230386271046e-12  2.1506159245302760e-05  7.0204962420360059e-32  8.0334069202469926e-15  5.6352444383032668e-29  2.6720023732672535e-07  5.7685348891805223e-27  2.9223178117031391e-26  1.4298952321963881e-27  2.1922090292116031e-27  5.9690957728936244e-19  5.8204864568907498e-23  1.6012498475964291e-22  1.2057053396061072e-21  1.2499423084598006e-07  8.9985002086494083e-08  3.3568743714737538e-03  9.2812542518016925e-05  1.7525868043302645e-29  7.1290185426391189e-17  6.7209788675247312e-06  2.5998991654252039e-09  1.4478693787911749e-03  4.7785717170267521e-07  3.9976074316444921e-03  2.4522740539516236e-24  5.2730357995054967e-07  9.4580720687805982e-09  2.1427628242238329e-05  3.8765385022540443e-18  1.1183305238368411e-05  5.1437582997081750e-12  1.5908772357893066e-08  1.3415021776924899e-29  4.5907123317044314e-17  3.3203476419074248e-03  3.3559885579584389e-03  2.1605649992944575e-18  2.5484777286196433e-03  3.9944721191247430e-05  1.9236799172945099e-04  2.4046679468146112e-05  8.3862144608603796e-05  2.1062649512908205e-05  8.6231735608234637e-04  2.5599408847269738e-04  1.0395741971760429e-07  2.1498653378025640e-05  6.1942805746288108e-20  4.0385109047733998e-23  3.5212995794201222e-14  4.3846639221673842e-23  8.5430458659673476e-15  2.7709115574337836e-16  7.9786342322589512e-17  1.4321345599659381e-11  5.1684474473951051e-22  1.8405093994854056e-15  5.7718792583805812e-28  5.7415622229002238e-06  2.9241026112042856e-03  2.6619107722316166e-13  4.9610512050110394e-14  1.9449506766591397e-06  4.2516404657585612e-03  3.5759357782290230e-20  1.6757650543234994e-21  2.2772128418225403e-03  2.0763855710143549e-05  2.2558908720707580e-03  1.1141676800115994e-06  5.7244087716520485e-04  5.0851545739236642e-21  3.7260983721136892e-20  3.9791223418502901e-19  4.7025534038276623e-06  3.3431902554103353e-26  5.0409706703902935e-06  1.2659297441948219e-29  7.1083906427968663e-29  1.9117148294969118e-15  3.1001718789356003e-04  1.3003236109944121e-30  8.1624926093643774e-31  7.8607984493501042e-32  1.2404184615888636e-23  7.8432671838378311e-20  4.6567434855736325e-10  3.1610405840581933e-10  1.3135719317102838e-09  1.0633582763270278e-07  2.8226056312423512e-17  4.3673884838217330e-11  1.7907989835822553e-10  5.9983011238838327e-10  7.2000948424417556e-10  3.7448574444353549e-09  2.8310730807388577e-32  2.8126885524926805e-31  2.2553996901486675e-11  1.9968925629542986e-27  4.4575119308855627e-31  5.1991896502358822e-06  7.7424169608978337e-13  1.5703794435847662e-08  1.1973494220252899e-25  2.5499231803244090e-24  1.6481131522978255e-04  2.5507797729502487e-06  1.5044645876276456e-03  2.2023732841624914e-09  4.1729152183614252e-04  8.6838943428267398e-09  2.7512400962180644e-07  2.4589111910555328e-12  2.8052518902455319e-12  6.6579734251591177e-15  5.0197717939945699e-16  4.3882039240949870e-16  1.1164320355451571e-11  4.9942070260419583e-17  4.2330242049490846e-31  1.5648135252386671e-13  4.4619336866928815e-07  3.3783941020104532e-04  7.0955339983575622e-04  7.8855342164523565e-05  1.2288409547648611e-06  7.3923349428669451e-07  6.8470248914828647e-04  5.3567491250190789e-04  2.0609828207102161e-04  9.9690793089675316e-05  2.0390923380274823e-25  8.9634164706370973e-15  5.2009143678133962e-09  4.3373585429609444e-06  2.2010718945738938e-05  7.7030356852030672e-06  1.6995562886457857e-16  9.9299015377439492e-23  2.9449284782577454e-28  5.1549571921696175e-29  1.8201135113009634e-27  9.4445892188888729e-15  1.1864742813384738e-11  1.2106872798739134e-13  6.2252578522938797e-07  4.1259742128684677e-17  1.4552709123674134e-12  2.0795203809881529e-33  5.9481992243552983e-32  1.3509897678770140e-13  3.1075866948784385e-18  1.5452808129654898e-18  4.6329304756216346e-24  3.6580754698238491e-11  9.7304635034373997e-25  3.3728842135897752e-06  2.5771821024895693e-17  1.5071351482685251e-08  8.4244323876124052e-33  1.1130816351103701e-10  1.6959333456631584e-03  3.7699645530461206e-07  8.5018450510708022e-04  1.5808586234157316e-07  2.8926032579752715e-03  6.1561573886375370e-07  9.9594810526010963e-04  4.1815495191299145e-08  3.6826437832458595e-09  9.2850611650808037e-07  8.6810143757562932e-05  3.1277870421362203e-04  8.9985020651783847e-08  1.6486088531326599e-07  1.8253226180327515e-05  1.4840661102182740e-11  9.5681078225770606e-15  4.2178292148552905e-22  5.1154687764491655e-29  6.9585490442529665e-16  1.9117571704733583e-30  2.0989422536786626e-28  7.3378498559073573e-23  6.0228780630432947e-29  5.0203941428898496e-08  1.8135750959266677e-17  1.4267737063617384e-12  6.8711699518494516e-06  4.6730358776635974e-15  1.2201352922572869e-14  3.4383420353002380e-12  6.5289035515443630e-19  4.5879998378082502e-18  1.8675998798318948e-27  2.2052252016831557e-03  3.8245525985574796e-17  3.5864574793454892e-17  4.4009652164072622e-22  4.5476434181880362e-26  2.8382664106781576e-22  9.1762033595903417e-06  2.8044605291008970e-05  3.8148238638818208e-25  1.9097510348826629e-21  8.4901809922242115e-15  9.3318266720883929e-27  1.7536241399031394e-18  6.2447658987892660e-07  1.8607132381702077e-10  1.7894669551251516e-09  3.5558225807724990e-05  3.4537809670853303e-03  2.4893634907211675e-21  6.1840925964342790e-05  1.2886139535698981e-30  1.2487066735125415e-30  6.1314688284671711e-11  1.6507521264287163e-05  8.3425715409849596e-16  1.2085761669244021e-03  1.5340247148621453e-13  9.2976264863245322e-27  1.0642132915778600e-26  1.8374680062382587e-03  2.9893201497782663e-30  2.1980735108728865e-06  6.6162493457337960e-05  1.5778117056566213e-05  4.2784321031187304e-08  4.0117726312761498e-29  1.0218262054661095e-24  1.5133478804740405e-10  6.6230474070281715e-25  4.7951359331941097e-22  5.1828430153459383e-25  4.4745214302728053e-28  7.1283396012595057e-32  8.4910491883644434e-06  3.9233385555032154e-09  6.5212874589636120e-20  5.3133677697445179e-08  1.3835232886440150e-08  2.3202937281825364e-20  1.2137716990535655e-21  2.3838320409796396e-05  6.8251259737300909e-27  1.9438417833353672e-03  7.5246246969226538e-20  1.5714317506471337e-03  2.6779798496307519e-05  4.9513771133799233e-07  1.2071963390860232e-05  1.8000449506183364e-20  5.5479844705418488e-12  5.8617847739752933e-19  3.8561526353117783e-06  6.1655523555636119e-16  1.3408875895017359e-09  5.0611061649130322e-08  7.5739468932906775e-05  3.3891078437198283e-26  2.0998815352910850e-05  3.5387775478616780e-27  1.9520090990042272e-13  1.2088658020438118e-08  1.0346547612902150e-20  2.3097796999033981e-24  1.6820474575526261e-11  1.1735590055206631e-12  5.7314004191354705e-04  4.9039272330220091e-23  2.1242266736275071e-07  9.0371063561965376e-14  4.9822878200411083e-13  3.0306399499345789e-12  1.7861983566536530e-21  1.6185302034047929e-18  5.4060994221670815e-24  7.3059981809419516e-25  2.5537098806522185e-30  1.9911739318370532e-19  2.2446434814854172e-28  1.9904362971217294e-07  2.4285591872150003e-07  2.8070040761386676e-19  1.0204724992015050e-26  2.4587547206548150e-14  3.0250497737328266e-03  1.4534494385751756e-03  3.1242713565850535e-19  8.5070595040497032e-07  3.6287366281291017e-03  1.2639502819326005e-03  2.8333032101205506e-28  1.2169376324163710e-03  1.1999462426418553e-15  3.5689515949242512e-03  1.2688870620422658e-14  1.5269022251025017e-25  1.6612480842142418e-08  3.0937484640781762e-05  2.9466306433476113e-03  1.2968903715081911e-06  4.3615568091284043e-31  4.1151489284338971e-06  1.2270950775152596e-25  3.9536913044285753e-13  4.5258162152745233e-21  9.7287422606217563e-26  1.8291258049445018e-32  5.9367542697186957e-11  2.2998775298887369e-06  2.8505506787382611e-11  1.2109245501052047e-11  8.3487355584819925e-08  5.1893148630561459e-21  1.6118812346827440e-05  1.6619567907539957e-32  9.3682735392799074e-10  1.1993619082866855e-29  8.6055859738346473e-11  3.8218833814726589e-03  5.7706784671114472e-03  4.3205169263606331e-26  6.5520102256335695e-08  3.5037919590059761e-16  2.9455228889486279e-17  1.2762943531244115e-17  4.7918760451487853e-18  2.2678246084184697e-18  1.0845743697829496e-25  5.3762200577289667e-09  1.6614790212546236e-07  1.6677378420478769e-09  1.2910209353287560e-06  1.5389966816758182e-07  7.6949562281416196e-16  1.2641173013467298e-16  2.2308322281706139e-06  1.6027898478217224e-12  9.2523628194389957e-26  1.9218102763325972e-08  5.4178939236511220e-05  1.4674168529725436e-04  1.1196056602374881e-05  8.9206337689788768e-33  5.2274717696486573e-03  1.5124436869391367e-13  4.8166360626810293e-14  2.8833943704105121e-07  1.5603387556211313e-14  3.0237593416337797e-06  1.6842782508851898e-23  2.4209353839824936e-07  2.8331830165476106e-11  1.0873575541370050e-06  2.2025780361477687e-04  4.8615354599235036e-29  7.5876737939183705e-12  4.2610529974629695e-07  1.5719204695545950e-06  4.1103208978935917e-18  6.5387558718211820e-21  2.7806965589810487e-06  4.8729308608077422e-07  2.5713591768443152e-07  1.8869822928745815e-06  2.3327426768492286e-03  3.7954736726730561e-24  2.6479636579206009e-31  4.7038030371277568e-31  5.4941415694696480e-32  3.0487258747327823e-04  1.2506173056793527e-25  4.2384082211796868e-28  1.0774673558242716e-10  6.5805131495785419e-16  4.4122849074234760e-24  7.6891499101481471e-25  1.8732604280124799e-20  5.5209506340805787e-06  6.4437998573815459e-13  7.6829999017631920e-13  5.9968992947783592e-06  2.6699167949738500e-15  4.2374899274856606e-13  2.5915588669704104e-10  1.5642956728740534e-10  9.4020841769496496e-07  6.9695994457490531e-04  9.5547383872450432e-04  3.7684593130081426e-15  8.1402149710102669e-07  2.9827593438991738e-06  2.4105374963501949e-07  2.4168703714842806e-03  1.4131758106181581e-06  1.2970260373513346e-12  2.6379416890111489e-03  1.2230375869617101e-06  1.3797583585578174e-32  7.3808151400804783e-06  3.6184263377857790e-05  1.0871418673185878e-19  1.8904819624819117e-20  2.5159835882658126e-03  4.8697668202549057e-27  1.5533482989053932e-04  1.4534991403835956e-03  3.4721858246122054e-05  2.1515740513480533e-03  4.1237022903702792e-06  1.8988157435347566e-06  2.6906446026173728e-27  3.2196461011486113e-30  2.7987409658575859e-04  9.6751659311940103e-19  2.1603045969634794e-19  1.2189517490205054e-19  2.3803240942363034e-15  1.2265665089147463e-13  1.1931042894466601e-20  1.5871119310256567e-24  1.9567730463381622e-04  5.7487826860724379e-24  1.8552969666365582e-27  4.5741767694922423e-28  2.5486149878034331e-03  1.1280803104491403e-04  7.4685548419663491e-23  5.3305500860555569e-07  1.1927959146845055e-23  6.0468440551860121e-13  7.9276404770945396e-17  1.1540886427273070e-08  2.6684115681767810e-07  5.8501794130106481e-26  1.2549602781286086e-06  8.8725523526312669e-14  1.6780050274770589e-04  1.5419163890686264e-03  6.6662808831622507e-22  1.0456611555763