<?xml version="1.0"?>
<VTKFile type="UnstructuredGrid"  version="0.1"  >
<UnstructuredGrid>
<Piece  NumberOfPoints="2446" NumberOfCells="4585">
<Points>
<DataArray  type="Float64"  NumberOfComponents="3"  format="ascii">0 0.41 0  0 0 0  2.2 0 0  2.2 0.41 0  0.2404508497187474 0.2293892626146237 0  0.25 0.2 0  0.2404508497187474 0.1706107373853764 0  0.2154508497187474 0.1524471741852423 0  0.1845491502812526 0.1524471741852423 0  0.1595491502812526 0.1706107373853764 0  0.15 0.2 0  0.1595491502812526 0.2293892626146237 0  0.1845491502812527 0.2475528258147577 0  0.2154508497187474 0.2475528258147577 0  1.1 0 0  1.1 0.41 0  0 0.205 0  0.55 0 0  0.55 0.41 0  0.275 0 0  0.275 0.41 0  1.65 0.41 0  1.65 0 0  0.8250000000000001 0.41 0  0.8250000000000001 0 0  1.375 0 0  1.375 0.41 0  1.925 0 0  1.925 0.41 0  1.5125 0.205 0  1.7875 0.205 0  0.6875 0.205 0  0.9625000000000001 0.205 0  1.2375 0.205 0  2.2 0.205 0  0.4687002074688797 0.2068568464730291 0  1.99375 0.2152743902439024 0  2.0625 0 0  2.0625 0.41 0  2.2 0.3075 0  0.4125 0 0  0.4125 0.41 0  1.7875 0.41 0  1.375 0.1486128048780488 0  1.5125 0 0  1.7875 0 0  1.5125 0.41 0  0.8250000000000001 0.2613871951219511 0  0.9625000000000001 0.41 0  0.9625000000000001 0 0  0.6875 0.41 0  0.6875 0 0  0.1375 0 0  0.1375 0.41 0  1.2375 0 0  1.1 0.1486128048780487 0  1.2375 0.41 0  1.65 0.1486128048780487 0  1.126715909090909 0.2793064024390244 0  1.676715909090909 0.2793064024390244 0  0.8517159090909092 0.1306935975609756 0  1.348284090909091 0.2793064024390244 0  0.34375 0.3032389320646208 0  1.894702181800738 0.1282910975492754 0  2.092797818199262 0.1282910975492754 0  1.85625 0.3075 0  0.61875 0.3075 0  0.61875 0.1025 0  0.3648540804333487 0.1240075933101478 0  0 0.3075 0  0 0.1025 0  2.099172119769978 0.25625 0  0.48125 0.09238439620688085 0  0.5781001037344399 0.2059284232365146 0  0.48125 0.3196743479159776 0  0.7265881057911006 0.3055240343720796 0  1.99375 0.08395950269330846 0  1.459960956013612 0.3075 0  1.569025960719943 0.2986889805672169 0  0.75625 0.08213100772579164 0  1.03125 0.3278689922742084 0  0.923871252904788 0.3078247185783941 0  1.959375 0.3126371951219512 0  1.749222215368287 0.1025 0  1.275777784631713 0.1025 0  2.2 0.1025 0  1.225938124459196 0.3075 0  1.550777784631713 0.1025 0  1.000777784631713 0.1025 0  1.44375 0.07430640243902442 0  1.16875 0.07430640243902437 0  1.899250267340833 0.2229966846119207 0  0.1020898364287272 0.3140258291809757 0  1.766482954545455 0.2934032012195123 0  0.3405058858996321 0.2119987970531874 0  0.7710785630958338 0.1710968191298857 0  1.046078563095834 0.2389031808701144 0  0.2 0.3400647632937836 0  1.421109702350723 0.2261157654379721 0  0.2800464974185557 0.08982544815605742 0  0.098916018031319 0.09171660955420841 0  2.13125 0 0  2.118919042110979 0.3422084711244843 0  1.30625 0.41 0  0.89375 0 0  1.597888256393107 0.2173787389261347 0  0.20625 0 0  1.829299675393195 0.07400700849299596 0  1.71875 0.41 0  1.16875 0.41 0  2.038220665644273 0.332420740103091 0  0.34375 0 0  0.417496017710808 0.2696595573092803 0  0.2 0.07687845740457822 0  0.9295982307099278 0.1343158415898188 0  0.07390688010811153 0.1697064032433452 0  0.5238366813727013 0.2578302467013575 0  0.05452951551825875 0.25625 0  0.5229630068078351 0.1548816096928243 0  1.452769549894695 0.1548122580621249 0  1.369219062229598 0.07430640243902442 0  1.30625 0 0  0.8504409521244898 0.3356935975609756 0  0.8821881244591965 0.205 0  1.720943423819132 0.1714577452753128 0  1.157188124459196 0.205 0  1.094219062229598 0.07430640243902437 0  1.03125 0 0  1.304056576180868 0.1714577452753128 0  1.67579304192913 0.07430640243902437 0  0.2751941921308361 0.3346083473122598 0  1.209670467133757 0.1362100266964769 0  1.025335513626278 0.1700681449722324 0  0.7562500000000001 0.41 0  1.58125 0 0  0.7567170593862014 0.2409196493502535 0  0.6926714215682891 0.1272249611432207 0  0.4139715849905988 0.3397932387114203 0  0.9840787304190477 0.2717749043358119 0  0.06875000000000001 0.41 0  0 0.35875 0  0.9281250000000001 0.06276726142697993 0  0.5507396469029935 0.3219409231578227 0  0.5504468037989405 0.09136885600634273 0  1.58125 0.41 0  1.631724228912893 0.3381867502687533 0  1.825608881788174 0.14499488549201 0  1.85625 0 0  1.44375 0 0  1.44375 0.41 0  1.85625 0.41 0  2.13125 0.41 0  0.7562500000000001 0 0  0.89375 0.41 0  0.4812500000000001 0 0  0.34375 0.41 0  0.4812500000000001 0.41 0  0.20625 0.41 0  0.06875000000000001 0 0  1.16875 0 0  0.61875 0 0  0.61875 0.41 0  1.03125 0.41 0  1.71875 0 0  1.99375 0 0  1.99375 0.41 0  1.340625 0.3489494290853124 0  1.134375 0.3489494290853123 0  1.700180620188976 0.3438659752031281 0  2.135782184673599 0.07126652247502523 0  1.668441847249787 0.2129203728327609 0  1.295782514339747 0.2378437748815763 0  0.8233075729931248 0.06842334294821524 0  1.409375 0.3520314716057996 0  0.403505597322782 0.182067236678212 0  0.378125 0.05794951541303489 0  0.3043468223249023 0.1518321115979534 0  2.129248544730567 0.1906135162504124 0  2.060771381434487 0.1989445750470348 0  2.013252586573865 0.1496169464686054 0  1.942766402200229 0.1734448904596831 0  1.895522487186454 0.06076163953489683 0  2.069553871656643 0.06605731020975725 0  1.274680914880868 0.3520219391081363 0  1.614713220494657 0.09473434380863296 0  0.7899021319497519 0.3149123934144827 0  0.69518737419149 0.0634051089053758 0  0.2971740475496061 0.2592172353407536 0  1.72990325744076 0.2380068107952482 0  1.356580098625191 0.2120393231351682 0  2.034370752044885 0.2668681600792073 0  1.51768709249349 0.3426260931494756 0  1.561883724969884 0.1650446847858835 0  1.197344062229598 0.2523725417393646 0  1.804085235518364 0.3468178408964637 0  1.817887819205233 0.2589243285818559 0  1.905897727272727 0.3485060975609756 0  0.6719798073392919 0.2688965171178177 0  0 0.05125 0  0.653125 0.35875 0  0.6396896119294488 0.1627615407790282 0  0.4274150154087412 0.1242548552168279 0  1.192836486056382 0.3562350748565544 0  0.8279124365364005 0.183856489168822 0  1.097485222388854 0.2083571153401724 0  1.28257088594801 0.2944411014911587 0  1.474860187679412 0.2504218616229368 0  1.406767003493824 0.2829282258560709 0  0.446875 0.04619219810344041 0  0.515625 0.04585361801037557 0  0.592043440706648 0.05125 0  1.845656689180403 0.1998310418452388 0  2.144958525570388 0.2909790873294231 0  0.6171090763650112 0.2492366900333857 0  2.2 0.15375 0  0.5145586920831158 0.3648371739579888 0  1.57794966442982 0.3540357145964566 0  0.721875 0.3633107922168974 0  0.0496154796471391 0.333125 0  0.5843750000000001 0.3662560860076676 0  0.5810878747760798 0.1474002776121195 0  1.508991196088596 0.1421783375065625 0  0.8840670607017558 0.2640994375393898 0  0.09776612425612034 0.2204896805326566 0  1.50436820029908 0.06143401634903343 0  1.223857000523521 0.0823554862453532 0  1.153316824384777 0.1289850171317837 0  2.148922302309752 0.1258841779285271 0  0.309375 0.04312325590431198 0  1.621993280276081 0.2841214267927899 0  1.550118654119087 0.2461998729100966 0  1.327182649291491 0.1216967252533594 0  1.051977450479407 0.1221382572915816 0  1.753125 0.04556020050186112 0  1.271875 0.04556020050186116 0  0.9816084133102366 0.05126138213476004 0  1.039051841454368 0.0572224914831029 0  0.9719230514536006 0.3480477870845102 0  1.94956388244759 0.1180512551534177 0  1.949997712993411 0.04965831614304109 0  1.771961817615021 0.1530278789497521 0  1.909246823951428 0.2812757146784527 0  0.2459536687882397 0.04668633953831142 0  1.948575539857022 0.2445328248721197 0  1.697271520964565 0.1233917627620729 0  0.7964897648514618 0.1211426571931604 0  1.065625 0.3689344961371042 0  1.085849084308977 0.3170853572226867 0  0.4702981435440001 0.260434880697798 0  1.577403511714593 0.05463601888079143 0  0.05622663515370135 0.05493816910862376 0  0.3267207591099919 0.3566194660323104 0  0.9003051618565143 0.3564049499960621 0  1.751571320346033 0.3651102912045228 0  0.1583785085108421 0.2994699345738728 0  0.1455283439499995 0.3542795598723423 0  2.2 0.35875 0  0.2347662494194072 0.298325008655211 0  0.1527284455616188 0.1065771775690181 0  0.1382139529076665 0.05427454456341477 0  0.8749341636311069 0.05110114999892954 0  0.643661668713109 0.05693499781019222 0  1.466879772203159 0.3611261772912453 0  1.990280163552011 0.3564754268533217 0  1.17471064520912 0.2990917256188288 0  0.5202693090594349 0.206382495511728 0  0 0.25625 0  2.2 0.25625 0  2.2 0.05125 0  0 0.15375 0  1.853978576207987 0.35875 0  0.9787513713939683 0.1487523696999336 0  0.240625 0.3722153812029779 0  1.515638456102889 0.2882700110184686 0  0.09048297387599738 0.3637717362208066 0  2.150453692751374 0.2387066338105111 0  1.323782677156475 0.04897634338873398 0  0.8074131292871642 0.3624701995505916 0  1.409375 0.03715320121951221 0  1.406484531114799 0.1087852750766809 0  1.134375 0.03715320121951218 0  1.627401732573545 0.04552157221025036 0  0.1170173172005315 0.1427610859166811 0  2.045405893604797 0.1105340662939892 0  1.255408269734577 0.1577307500159216 0  2.028125 0.03707597992059326 0  0.4743610090857199 0.1421513964721819 0  0.9354010469015898 0.250631300585664 0  0.04420832937638274 0.128125 0  0.8922386349349938 0.0992956419364831 0  0.1197849154434487 0.2663398672460083 0  1.248258025468107 0.2565907092181813 0  0.3746885856929528 0.370723531618974 0  1.203125 0.0366132337404304 0  0.5724622277005015 0.2751253816079333 0  0.3365425205162783 0.08395777655057959 0  2.072662025974815 0.2975086504196739 0  0.4581080832182547 0.3648371739579888 0  0.3874522734668214 0.2295447548840689 0  0.7827853612484443 0.04106550386289586 0  1.887722846421017 0.1760882698830035 0  1.472640588990488 0.1118278026240017 0  1.865937103925594 0.2604137786483804 0  1.463913572748262 0.2030442564990043 0  1.376426316059077 0.3186741374914345 0  0.6641993820150034 0.3141688596240831 0  0.2943117490824315 0.2130987422685822 0  0.3478153998082709 0.1666571081082676 0  0.3427990510599805 0.2575950027870776 0  0.7997118993855807 0.2216171933356366 0  
[...]
<PointData  Scalars="f_23-2"> 
<DataArray  type="Float64"  Name="f_23-2"  format="ascii">1.5828351916613258e-19  9.9538709011947242e-19  2.4217781308795825e-71  1.5635336722910184e-71  4.5702391854048504e-14  2.0455521802420672e-13  1.6686079069595604e-13  1.3130198896165386e-12  8.1166903363808178e-12  1.8457577001368907e-11  1.2368284790188847e-11  7.9896089520317544e-12  3.0153388572220126e-12  3.8624685036979926e-13  1.6458594918983080e-39  5.2519023347126307e-40  3.1952441050949252e-14  -9.0870891261596574e-25  -8.6375392331569803e-27  -1.8112373401876420e-17  8.3526036281381500e-19  1.7840474840021586e-55  2.1436968432588403e-55  3.8549295326808516e-33  4.9559383723925323e-32  2.7713555040442010e-47  1.3362448587705446e-47  2.9691191328674023e-63  1.1490159973108500e-63  5.7069010586981503e-50  3.7982856095944683e-58  1.5848851100373409e-25  9.3730555974605135e-34  7.2492708394116411e-42  3.0345315997459028e-70  6.2707229704177671e-19  2.3499880763890680e-64  2.4985157258634702e-67  6.4894216415777641e-68  1.1114384747207647e-70  -1.1974190746146477e-20  2.0453394673421952e-21  5.9508619379591341e-60  5.8170948171201826e-46  2.4786032081270891e-51  1.9076949744858113e-59  1.9369558559131264e-51  9.0737342843300472e-30  2.6684291448970014e-36  1.4639220482790059e-35  -9.2790975698051221e-29  2.2526599282242168e-28  -1.6707949083693325e-17  -6.9176329589847862e-17  3.2488607345912306e-43  7.5474702836568051e-38  1.4795831140497191e-43  3.9818065408392961e-54  6.7184454156985925e-39  4.2071691912649805e-55  1.6389987630147141e-30  2.2632099198712976e-45  4.3645828744924078e-17  1.8202151609563035e-61  1.7989900600359789e-67  1.6413874196874975e-60  1.8962753823636414e-24  4.2508176460586134e-24  9.8599001261429914e-17  -2.2227214544032055e-15  6.2677451248307320e-15  1.7181413006062679e-67  2.3997585920928126e-20  2.8799873963910516e-22  3.2595037297352196e-21  1.8048697456621969e-27  1.4722862667451924e-64  7.7127120433119319e-49  4.9659155001925003e-52  2.8044479496771319e-28  2.1610203833023503e-36  4.7973400181518094e-33  1.4903800058351083e-63  3.6190125324554301e-57  4.0163257814061300e-43  2.0777059583658345e-70  5.9702852905047864e-42  3.0806647476489479e-51  4.0538051898977837e-35  3.2805723149491079e-48  3.1472652422725982e-40  1.4454732385653736e-61  -2.2454425274624958e-13  7.9484594325534795e-58  3.0264320785049999e-15  4.8621490144664569e-28  2.7882578267010246e-36  1.2847253413060560e-14  2.3176872569375391e-47  6.1330506987345224e-15  3.5351006105360378e-13  1.2952263450059287e-69  1.4913897228312572e-68  1.3026634636986114e-45  6.3949139546016682e-34  1.4318416123901084e-52  -1.6070436861213180e-16  1.1061400517274167e-59  1.6085888630644885e-57  1.2905098757821078e-41  3.8552142764980396e-66  -8.2874263163627220e-19  2.4607278773835660e-18  -1.1172571574265033e-13  9.2294888901046337e-33  8.2856203390371437e-13  4.6455508975383229e-21  -3.4737548306133717e-14  1.0346157570783138e-20  3.2305606312753046e-48  4.6400591131358258e-46  2.6741963215205627e-45  1.8049419345081239e-31  1.9853922325494757e-31  3.4676287917888083e-56  1.6233728128560218e-39  5.1403951378400260e-38  2.0719048597290220e-37  7.6408054096774873e-44  4.4653789394539556e-55  1.1038234030070727e-15  4.0101592915876157e-41  1.3590605867406983e-35  -1.2290227469847890e-30  3.0917631919543736e-53  1.0870166269198289e-27  7.4559213461258534e-26  8.8898737050279344e-20  1.2828768142578792e-34  -2.7937772167557256e-17  7.3098578408799164e-18  1.7287782755395335e-33  4.9157233160337639e-23  2.4517321839373483e-22  1.6614275502828500e-53  4.0687753061776637e-54  2.1858523214146940e-59  2.0693929738209602e-61  1.9357616270474429e-49  1.9405226498805325e-49  1.2857439172186480e-61  1.0880865651915330e-69  3.8194396956056747e-30  2.5600892979974047e-34  -1.1791946210195694e-22  3.0450687389609446e-20  3.5523691560571705e-23  -2.1806439612768507e-17  6.5793525350456165e-17  3.1859075909052041e-41  1.8350299722249733e-27  -5.4857739488564533e-27  6.2029255376461851e-38  2.0815061101074925e-57  2.0810291515349029e-65  1.0717909473909230e-65  1.1325148292950491e-45  1.2250644964822148e-39  2.9230063249821170e-56  7.0011556397623325e-69  1.1247496930122044e-54  1.3418822363972686e-43  2.2218266791338160e-30  1.0664148769171221e-47  5.4088040952408765e-17  1.9841111391151451e-18  8.9407448960928722e-15  2.3251941746289686e-68  2.3947868778808532e-66  5.2906488566437976e-65  8.3960871232270544e-63  1.0241666136417267e-61  6.5154889874167391e-67  9.3627018051502272e-44  3.4750008761928401e-53  2.1007817878124537e-29  6.5103059246829580e-27  2.8733744617109044e-15  1.7282358137828325e-56  2.2018150221401316e-45  1.0925264599555708e-65  8.2451172214255967e-51  1.9781915116430003e-51  8.2896633838825577e-41  2.6935721562647690e-59  2.6148380484452050e-59  2.4897023258964105e-62  1.8443844217102127e-25  -2.6882595335730323e-16  4.1996719063988138e-27  4.4127563157530678e-24  2.1089456992671315e-18  2.1204599531467650e-41  1.1733505992836231e-29  1.0590916008113510e-37  1.7195334244443279e-43  5.7591935287719844e-49  3.7159628974876636e-47  1.2926595756680132e-20  2.0478573505907003e-22  1.6360954101460693e-24  5.7741044993836598e-60  5.7080523978170494e-69  1.1993116649794650e-23  2.3795216742731751e-70  3.2453124317104735e-23  8.0640093995595037e-53  1.0624801528550848e-28  -7.6230476871116965e-15  3.0641506700845188e-25  1.8234247108234162e-22  6.3173575561959487e-50  1.4881209977122427e-31  3.8602079920479935e-12  3.5504833748341732e-50  1.0507127935158219e-41  2.0486474001369195e-39  4.4121312599271424e-69  -2.3444099024968100e-17  1.5147863642711959e-53  3.2650276535572565e-51  1.1957438163561952e-44  2.0077903958321729e-36  1.2528746564335954e-57  1.7895189898508969e-43  3.7701017931383604e-35  1.0260005027936284e-36  4.7016470493703419e-35  3.5807560170780917e-63  1.7566125024049662e-63  9.3893892226412071e-58  4.8857516725442789e-62  -2.6607838293924583e-15  4.3705189547876880e-63  1.2745507387914103e-55  5.8491620876699862e-29  5.8389895589552800e-38  5.9681307133253974e-38  1.3550690444331138e-19  2.2177300352901188e-52  1.7613768895323759e-14  1.7651055701419910e-17  2.9782840051097586e-33  4.7749837211079125e-58  1.0728829945708234e-12  -7.3295111488468053e-15  5.6162996406774346e-71  8.1785681725466376e-14  -3.7199513394526375e-12  -6.2022182437855521e-16  4.1007531448147374e-32  1.0783603142749522e-25  1.8600378462471148e-49  7.0654992666408719e-65  1.9625086871576939e-40  1.5981003731333917e-20  -4.3601990955159227e-14  2.1798818088035228e-70  1.0543985281557833e-70  1.2710584523204692e-13  6.6731317905863997e-61  3.2072012696249482e-34  1.6460370154649786e-16  2.1307221702849065e-50  -3.9544089655776494e-15  5.5712961374124647e-69  6.4898031202017843e-45  8.2429792422311602e-31  1.1030992238077480e-47  5.4437772605717517e-47  9.0608561534004713e-40  6.6552963322655839e-54  -2.5080709906608978e-11  4.5150411069183707e-66  1.9219409527583217e-42  6.7779655939861042e-66  1.5165678005552753e-19  5.5998882179213027e-33  1.6188098847971271e-13  6.1805732882690828e-32  4.1550925848134568e-12  2.7374726933441323e-42  3.8428697405064647e-19  1.2762488977590980e-41  1.0665481076531624e-22  1.4419107393541173e-16  6.7818899777765738e-67  1.9664710833324848e-21  9.3983577137120924e-17  9.0103386257756207e-30  3.7715106922671789e-61  6.0105467117389392e-49  1.1933154372390481e-60  1.4729359112786484e-48  1.8240036297425724e-46  7.4039092948197611e-26  4.0888606338460722e-14  1.3163526653258261e-15  3.3409509173815890e-16  7.2171636970452128e-29  1.7122885373765780e-56  6.6182591921772174e-58  3.8936402374127740e-68  1.6908624302492663e-26  2.8910969509468327e-27  6.8949760951093262e-35  5.2011734464969205e-36  1.1311554456396583e-37  1.6762418300260990e-46  9.9548357624522980e-14  9.4009053244261580e-67  1.0180319803032390e-52  3.9575890901401778e-24  2.6538541898710258e-26  3.0366733032479160e-59  7.5174355014960086e-14  2.4682535755566318e-64  8.4164996575458116e-70  9.5148307398805756e-69  2.1464681167387038e-67  5.6663463686442638e-15  1.8715804022004030e-28  1.8065357111838851e-54  1.8948009280077851e-58  6.5130090392322468e-65  2.0766118071717915e-16  3.1283513071585684e-46  1.0498505370610297e-40  2.1617104946666364e-50  1.6244573931972951e-53  1.8023402976511773e-52  -8.2783594360611131e-35  1.4737642691085590e-56  2.8607059211148372e-56  6.3820000776898735e-37  1.4439820597682471e-36  7.8798350855289174e-70  4.7611226026125010e-70  -1.2136885438452908e-18  1.4260576600919152e-25  8.6122325225858143e-30  1.7795406553082204e-32  2.5458245484051298e-31  8.3966771674974905e-54  6.3497637225435804e-59  1.0439434991427701e-60  3.5344987901359910e-52  9.3290515508726268e-64  9.3138060331670056e-18  4.2756505767728115e-13  1.2563266731828277e-60  4.7458289412999993e-38  4.1605753992234188e-57  2.2699753183644884e-55  4.2524876019884801e-34  6.9670002094662566e-19  -3.6155381385922248e-17  2.9092921596509164e-66  2.9938302174199536e-35  3.3301840406145046e-51  8.7155616349250376e-43  2.3755129962160852e-67  2.7889773686779342e-49  -7.4445178603617212e-15  6.1312272489541112e-37  2.8447495045540251e-18  2.0552797887092235e-52  1.1361931033124680e-28  2.1306452093939241e-18  8.8884206869473356e-20  3.6244055149977134e-27  5.9486601199039754e-39  1.3647999486635321e-30  9.3664109023762152e-39  5.9664769327484295e-39  -7.1095535804596653e-12  2.5730214571645549e-69  9.4662237052834130e-45  1.0486353855370379e-64  6.7695586976663469e-31  1.0340702587821283e-62  9.0726041497728082e-61  2.7169333018523012e-62  1.0862686483274678e-62  4.5684808125795831e-50  3.8855648116302700e-56  3.6022473993966133e-55  2.6864792213052274e-54  1.1066543812965952e-17  3.6482355373611938e-32  1.0676899400165862e-15  -5.5720214644753474e-18  2.2988292806295489e-66  4.4320289958359605e-47  2.4128325787790666e-25  4.0790055690187750e-35  -2.3264268491708506e-13  9.8413312489401391e-24  4.0058812467401767e-13  4.0096177514656279e-58  6.6783140247325461e-27  1.4741798670036943e-34  3.6164373387430833e-27  2.8090960380289056e-49  -8.6486771831561896e-15  8.5024780127981655e-40  6.4313521875753721e-31  9.2301759974958297e-66  3.2332604249662167e-48  4.8891766646109611e-17  -6.2115443968068235e-16  3.8400570914077815e-50  3.1227414394447671e-19  4.8960706535099418e-23  1.0429754666554529e-19  1.2339730330602238e-20  1.5579966882794988e-21  1.0572900494409722e-15  7.1140551058020285e-21  1.8862441266120276e-21  1.2479812181033761e-32  -1.9148321251303033e-16  3.7504213028005150e-51  5.4537108834344436e-57  4.9940203091320860e-43  1.1577516008726056e-56  1.3380433672905736e-43  6.8658837769897535e-46  3.6852369337235604e-46  1.5755512332633312e-37  3.8130833082460619e-55  6.8469416671662176e-45  8.6853789039145602e-64  1.7806146782087066e-12  5.6172004063011780e-18  1.2183164246314656e-40  3.7407631926422984e-42  2.7007099680731281e-13  5.0879213122120597e-15  4.2807784105781933e-53  3.8256473008527662e-55  2.8644119966331059e-17  1.5682712277740427e-12  4.6225596664916702e-14  1.5837597851991075e-15  6.4367404167639845e-20  2.5321108944769546e-54  1.9620159885703294e-52  1.7982186509695560e-51  8.7108729555579297e-25  2.5833927704944534e-60  1.3570433160227802e-28  2.0602795668910947e-66  2.3852701502085652e-65  3.0484580179145987e-44  7.2404585044807237e-14  6.2576136336590280e-68  4.8735630751928692e-68  2.2855729595423780e-69  3.3470391075013261e-58  2.9690687476430351e-51  1.0673976744297947e-35  3.2952484311842322e-35  1.4191858953771747e-34  5.7822604601486727e-27  3.4512789376558750e-47  1.4584449061843568e-38  1.9283892258189657e-34  2.9071411727590450e-33  9.7842781592222943e-33  2.3287461933797884e-31  1.3693296650562141e-69  2.8188025169269992e-68  2.4332697178348510e-36  3.0613601882053193e-63  1.6763510815382417e-68  1.0272876227124800e-27  7.3769110074498993e-41  9.3334844800672562e-33  2.3049854407166831e-60  1.2525802326076360e-58  1.5717395819748269e-22  5.6038442380106144e-18  1.5609282336776275e-20  5.4287683628761024e-33  1.3831165316346862e-14  5.2966774467477240e-34  5.2063162989734673e-29  8.8613518491349815e-41  1.2552001451240779e-40  4.9958241697854844e-45  1.2127924016174189e-46  8.0145046045088245e-47  1.7113884221494242e-39  1.3907760467429463e-47  3.5329518886895423e-68  1.0092981582626514e-42  -6.2590999236304894e-32  4.8642174448652669e-24  4.8374492903783666e-16  3.2107641756354980e-17  3.4135869787963199e-20  -1.1473700353845049e-19  2.3377244470596200e-22  7.6693417196831784e-22  1.9854116945536406e-24  1.6463025653843595e-25  3.1804786862431856e-60  1.1023984978706528e-42  5.9105295051732483e-34  1.9436381169616948e-21  8.5462131458656189e-22  5.6970035351740040e-23  1.8066708948104974e-47  1.1134518855656132e-56  2.6059963640904722e-64  2.2523681227965888e-65  1.4569104133802208e-63  1.2302409578974404e-44  1.3802909792774191e-39  1.0433469236747848e-40  1.1202909800045453e-21  1.8423213874175941e-46  1.6759265320338842e-38  1.4377939105778145e-70  1.6241819435115749e-68  2.5468732443160105e-40  3.2999228569001422e-48  1.8108135907297450e-50  1.4320617444593978e-58  5.5324964280602206e-39  3.2512181424674825e-58  -1.1576669145917924e-29  1.1587737997970639e-48  1.9984799876600416e-29  1.1998468783771280e-70  1.3623374267090928e-34  3.0419136156136983e-20  -1.2163797774427781e-21  4.7438082528316697e-22  -2.7234087334464732e-17  -3.4109092171342784e-18  7.9014361694198952e-18  -2.1085635565700492e-17  5.9643584557154301e-28  4.4245030299987925e-31  -5.5937562842131313e-18  -2.8873670975943568e-26  2.3906593888348976e-24  -2.8319983348054271e-26  -1.1375889943004694e-23  -7.6260283323910983e-28  2.0698217529801406e-36  2.0716195552988868e-42  2.8864178045942250e-54  2.1904184031421817e-64  2.7317970219670099e-44  2.2233879938853175e-66  1.1114268648049964e-64  4.8147340339340069e-57  3.9224513228508604e-65  2.4852956476920875e-29  7.1714013856040525e-48  6.2040989367674415e-40  1.0802636100233615e-17  9.2493019086219622e-45  2.7745644105954415e-44  1.8169020989014901e-40  3.4889731670296138e-51  6.7216425857794627e-50  2.3658348267614805e-62  6.6211791299186269e-12  1.4645438931052682e-48  1.7826579387896487e-48  1.0332583488791926e-55  1.2318189788832359e-61  9.4360488879533398e-56  1.6390157673706518e-14  6.4542064186684383e-25  1.7060913148991158e-59  9.2190327776433594e-55  4.2812115431743367e-44  1.3241579213700986e-62  1.9196822225085781e-50  2.4103232416137776e-30  4.2038536668054364e-37  6.4888005668886568e-36  -2.9009348043912357e-14  1.0299207404927923e-14  2.7235146959956287e-53  4.2179379595451221e-27  6.7233131290138399e-67  2.4404369615035243e-67  3.8680238336812464e-36  1.3841353998896123e-28  1.3249657364788077e-45  6.2991493752690014e-13  8.7248441786067612e-43  2.7310080303678584e-62  5.3934171205951951e-62  -1.0156867674987464e-15  1.6747213719771332e-67  -1.6041861821136572e-13  8.1166522703177941e-25  1.7399759164674943e-26  5.0658293569857249e-32  7.3512188734175753e-66  1.1697922875646289e-59  1.1997842144988312e-36  5.1327483416914058e-60  7.7304656729351630e-56  6.9329018974223641e-60  1.2283919341530630e-63  1.3468032001445233e-69  2.3700356131179431e-19  1.9998476295233120e-33  7.6093656154899977e-52  5.9763276682675900e-30  5.5835656854588195e-34  3.4823753783066991e-52  4.4811094889872884e-54  2.2616685043829436e-12  9.2592264472437414e-63  4.5502113343954399e-15  1.7206455868755188e-52  2.5788360581600752e-14  9.3876442330815538e-15  1.5868878115602103e-15  1.4726238569919975e-23  1.7183720132705809e-53  1.8327224837445186e-38  1.3032773018849915e-50  -2.3030798895840301e-16  3.9285060248153171e-45  1.0117301881006164e-33  5.6639398980362460e-28  3.4631094889521324e-23  9.3097033528512092e-62  1.3431291621585008e-26  3.2538984710094541e-63  1.4461326421812155e-41  8.6554252203306231e-32  2.8014179477590101e-52  6.3682330578101485e-59  4.1990600002931919e-37  3.0629984842961467e-41  1.1276947947636850e-11  3.6725454110836501e-57  1.2032848907367441e-25  1.5941509710738707e-42  1.2574093339467340e-41  6.0339280575602410e-40  2.0236579237110053e-54  3.6785908740890390e-49  1.2486640811540194e-58  6.9608279242153741e-60  2.9319721334271769e-67  2.7341431667379327e-50  8.0539487420034567e-65  -4.1299595306637161e-18  -1.8402341937858740e-16  6.9497120290570412e-51  9.2684071233960058e-62  4.8782861067472424e-44  -4.0432847244819767e-13  5.1513882065957493e-21  1.0417268487300860e-51  -1.0498147995870577e-15  -1.7143768223390734e-16  3.1279771388389161e-20  3.7445188705141878e-64  1.5033666783116292e-18  3.8203542831088579e-46  2.1075333833808019e-16  9.2012622959330846e-43  8.1931650723902794e-61  2.3694329929765370e-34  -1.7188884736302296e-14  3.4085004518579217e-16  -5.4883154851587373e-19  7.6805946921581344e-68  2.3110001440669458e-28  7.5580639151411389e-60  1.6134790911544147e-41  1.4790319957529721e-53  3.8131274550879515e-61  2.4445036262549062e-70  4.9396042106028324e-38  2.4399426594756637e-23  8.8504491614051754e-38  1.2028713724565407e-38  2.4541941804643502e-30  3.5466088719635602e-54  9.5466413209259136e-25  8.4349412161815561e-70  1.3749525913662820e-35  1.4880059149757989e-66  1.1930817274774054e-35  -3.6768756430246531e-14  3.2848016098958181e-14  1.6193271307816364e-61  4.1031908252683695e-32  1.9673031624242824e-46  2.9738276195919265e-48  4.1372145244397486e-49  1.8576945271486225e-49  1.0873472868082349e-48  3.6750125876748626e-61  5.4889415351974046e-31  1.2136991394081651e-27  9.1878882210148202e-36  3.6770385508091127e-28  1.8373445432641712e-30  2.9904825699751475e-46  2.0844916554949130e-47  1.6162669048929066e-29  9.2521356238992623e-39  6.8077184795341816e-61  3.7031949683266280e-33  1.5670978498823197e-24  1.2851687955179503e-23  1.2380564714474919e-27  1.6897364908739814e-70  1.0014686647694086e-13  1.4361791935095526e-42  2.9399847177310273e-43  1.1260236597385020e-31  2.2075741747770637e-44  -1.4719711198513782e-30  7.6716771320042710e-57  1.1922763249807173e-30  6.5524492060853053e-39  1.6805755423023216e-24  2.3901562309128826e-16  1.0201549233237592e-65  3.1824778159332772e-37  1.0328965771262203e-29  1.2422154128928248e-22  4.0884895486899485e-49  3.3240270532960935e-54  2.3740941762451106e-20  5.2939409629026412e-28  3.3157311722205314e-28  1.3393406595798039e-21  6.4241558449950581e-13  8.6521292967667436e-59  6.3671688603886570e-69  1.8947754779725971e-68  8.3672023330417604e-70  6.9243186992281006e-25  8.1203576355372860e-61  1.7615857864183685e-64  2.3503339488405872e-36  1.0817123453165810e-44  2.4376739267090054e-57  1.7266153997698434e-58  1.5292199066824218e-52  2.5672389676901815e-26  2.8446756534270282e-40  8.3990892768664401e-40  4.9503159021000068e-16  7.7205785116475450e-45  3.9422413708261530e-42  5.0551714735297387e-37  1.5330337661627364e-37  1.3356280613839511e-29  1.4796945922103932e-22  4.8065134318437589e-22  1.0866188223512038e-43  1.1869556937149058e-13  -1.3055172759002334e-14  3.2126164826135313e-15  -6.2191148626061877e-16  -2.2675337497813970e-16  4.6360666304662456e-39  1.6592937062395776e-18  2.5660367439790758e-27  2.2557645340556069e-70  -2.8426210383656490e-12  -5.5317717490784590e-15  2.0560349244017134e-52  1.3437274728635243e-53  2.5065375572226177e-12  2.6841055341828433e-62  -2.9759860241619248e-15  1.0210510011834036e-17  -1.4211353835957968e-16  -9.1383435148641164e-14  -6.0650648698653507e-12  -5.3515927124704753e-13  7.7481873535652620e-63  3.1555025477448563e-67  3.8984073206511940e-23  1.5242407440252318e-50  7.8606508463075883e-52  5.6869544215470075e-52  1.1229421320440727e-45  4.7869776421596898e-41  4.3894575880361041e-53  5.0666201896856459e-59  2.2701266985798358e-25  1.0142304249012767e-58  1.3793059422444614e-62  3.4558832732751538e-63  8.0113193611938915e-19  5.5115706718965605e-18  3.8560671648304925e-57  9.0637026380222911e-29  1.9717364765654107e-57  9.3991323530725730e-42  6.3626731673516860e-48  3.2301133712937347e-32  1.0195208308473281e-23  6.3539939107030535e-61  -7.4056913264109384e-18  4.5225778769574437e-43  2.45092333253