<?xml version="1.0"?>
<VTKFile type="UnstructuredGrid"  version="0.1"  >
<UnstructuredGrid>
<Piece  NumberOfPoints="2446" NumberOfCells="4585">
<Points>
<DataArray  type="Float64"  NumberOfComponents="3"  format="ascii">0 0.41 0  0 0 0  2.2 0 0  2.2 0.41 0  0.2404508497187474 0.2293892626146237 0  0.25 0.2 0  0.2404508497187474 0.1706107373853764 0  0.2154508497187474 0.1524471741852423 0  0.1845491502812526 0.1524471741852423 0  0.1595491502812526 0.1706107373853764 0  0.15 0.2 0  0.1595491502812526 0.2293892626146237 0  0.1845491502812527 0.2475528258147577 0  0.2154508497187474 0.2475528258147577 0  1.1 0 0  1.1 0.41 0  0 0.205 0  0.55 0 0  0.55 0.41 0  0.275 0 0  0.275 0.41 0  1.65 0.41 0  1.65 0 0  0.8250000000000001 0.41 0  0.8250000000000001 0 0  1.375 0 0  1.375 0.41 0  1.925 0 0  1.925 0.41 0  1.5125 0.205 0  1.7875 0.205 0  0.6875 0.205 0  0.9625000000000001 0.205 0  1.2375 0.205 0  2.2 0.205 0  0.4687002074688797 0.2068568464730291 0  1.99375 0.2152743902439024 0  2.0625 0 0  2.0625 0.41 0  2.2 0.3075 0  0.4125 0 0  0.4125 0.41 0  1.7875 0.41 0  1.375 0.1486128048780488 0  1.5125 0 0  1.7875 0 0  1.5125 0.41 0  0.8250000000000001 0.2613871951219511 0  0.9625000000000001 0.41 0  0.9625000000000001 0 0  0.6875 0.41 0  0.6875 0 0  0.1375 0 0  0.1375 0.41 0  1.2375 0 0  1.1 0.1486128048780487 0  1.2375 0.41 0  1.65 0.1486128048780487 0  1.126715909090909 0.2793064024390244 0  1.676715909090909 0.2793064024390244 0  0.8517159090909092 0.1306935975609756 0  1.348284090909091 0.2793064024390244 0  0.34375 0.3032389320646208 0  1.894702181800738 0.1282910975492754 0  2.092797818199262 0.1282910975492754 0  1.85625 0.3075 0  0.61875 0.3075 0  0.61875 0.1025 0  0.3648540804333487 0.1240075933101478 0  0 0.3075 0  0 0.1025 0  2.099172119769978 0.25625 0  0.48125 0.09238439620688085 0  0.5781001037344399 0.2059284232365146 0  0.48125 0.3196743479159776 0  0.7265881057911006 0.3055240343720796 0  1.99375 0.08395950269330846 0  1.459960956013612 0.3075 0  1.569025960719943 0.2986889805672169 0  0.75625 0.08213100772579164 0  1.03125 0.3278689922742084 0  0.923871252904788 0.3078247185783941 0  1.959375 0.3126371951219512 0  1.749222215368287 0.1025 0  1.275777784631713 0.1025 0  2.2 0.1025 0  1.225938124459196 0.3075 0  1.550777784631713 0.1025 0  1.000777784631713 0.1025 0  1.44375 0.07430640243902442 0  1.16875 0.07430640243902437 0  1.899250267340833 0.2229966846119207 0  0.1020898364287272 0.3140258291809757 0  1.766482954545455 0.2934032012195123 0  0.3405058858996321 0.2119987970531874 0  0.7710785630958338 0.1710968191298857 0  1.046078563095834 0.2389031808701144 0  0.2 0.3400647632937836 0  1.421109702350723 0.2261157654379721 0  0.2800464974185557 0.08982544815605742 0  0.098916018031319 0.09171660955420841 0  2.13125 0 0  2.118919042110979 0.3422084711244843 0  1.30625 0.41 0  0.89375 0 0  1.597888256393107 0.2173787389261347 0  0.20625 0 0  1.829299675393195 0.07400700849299596 0  1.71875 0.41 0  1.16875 0.41 0  2.038220665644273 0.332420740103091 0  0.34375 0 0  0.417496017710808 0.2696595573092803 0  0.2 0.07687845740457822 0  0.9295982307099278 0.1343158415898188 0  0.07390688010811153 0.1697064032433452 0  0.5238366813727013 0.2578302467013575 0  0.05452951551825875 0.25625 0  0.5229630068078351 0.1548816096928243 0  1.452769549894695 0.1548122580621249 0  1.369219062229598 0.07430640243902442 0  1.30625 0 0  0.8504409521244898 0.3356935975609756 0  0.8821881244591965 0.205 0  1.720943423819132 0.1714577452753128 0  1.157188124459196 0.205 0  1.094219062229598 0.07430640243902437 0  1.03125 0 0  1.304056576180868 0.1714577452753128 0  1.67579304192913 0.07430640243902437 0  0.2751941921308361 0.3346083473122598 0  1.209670467133757 0.1362100266964769 0  1.025335513626278 0.1700681449722324 0  0.7562500000000001 0.41 0  1.58125 0 0  0.7567170593862014 0.2409196493502535 0  0.6926714215682891 0.1272249611432207 0  0.4139715849905988 0.3397932387114203 0  0.9840787304190477 0.2717749043358119 0  0.06875000000000001 0.41 0  0 0.35875 0  0.9281250000000001 0.06276726142697993 0  0.5507396469029935 0.3219409231578227 0  0.5504468037989405 0.09136885600634273 0  1.58125 0.41 0  1.631724228912893 0.3381867502687533 0  1.825608881788174 0.14499488549201 0  1.85625 0 0  1.44375 0 0  1.44375 0.41 0  1.85625 0.41 0  2.13125 0.41 0  0.7562500000000001 0 0  0.89375 0.41 0  0.4812500000000001 0 0  0.34375 0.41 0  0.4812500000000001 0.41 0  0.20625 0.41 0  0.06875000000000001 0 0  1.16875 0 0  0.61875 0 0  0.61875 0.41 0  1.03125 0.41 0  1.71875 0 0  1.99375 0 0  1.99375 0.41 0  1.340625 0.3489494290853124 0  1.134375 0.3489494290853123 0  1.700180620188976 0.3438659752031281 0  2.135782184673599 0.07126652247502523 0  1.668441847249787 0.2129203728327609 0  1.295782514339747 0.2378437748815763 0  0.8233075729931248 0.06842334294821524 0  1.409375 0.3520314716057996 0  0.403505597322782 0.182067236678212 0  0.378125 0.05794951541303489 0  0.3043468223249023 0.1518321115979534 0  2.129248544730567 0.1906135162504124 0  2.060771381434487 0.1989445750470348 0  2.013252586573865 0.1496169464686054 0  1.942766402200229 0.1734448904596831 0  1.895522487186454 0.06076163953489683 0  2.069553871656643 0.06605731020975725 0  1.274680914880868 0.3520219391081363 0  1.614713220494657 0.09473434380863296 0  0.7899021319497519 0.3149123934144827 0  0.69518737419149 0.0634051089053758 0  0.2971740475496061 0.2592172353407536 0  1.72990325744076 0.2380068107952482 0  1.356580098625191 0.2120393231351682 0  2.034370752044885 0.2668681600792073 0  1.51768709249349 0.3426260931494756 0  1.561883724969884 0.1650446847858835 0  1.197344062229598 0.2523725417393646 0  1.804085235518364 0.3468178408964637 0  1.817887819205233 0.2589243285818559 0  1.905897727272727 0.3485060975609756 0  0.6719798073392919 0.2688965171178177 0  0 0.05125 0  0.653125 0.35875 0  0.6396896119294488 0.1627615407790282 0  0.4274150154087412 0.1242548552168279 0  1.192836486056382 0.3562350748565544 0  0.8279124365364005 0.183856489168822 0  1.097485222388854 0.2083571153401724 0  1.28257088594801 0.2944411014911587 0  1.474860187679412 0.2504218616229368 0  1.406767003493824 0.2829282258560709 0  0.446875 0.04619219810344041 0  0.515625 0.04585361801037557 0  0.592043440706648 0.05125 0  1.845656689180403 0.1998310418452388 0  2.144958525570388 0.2909790873294231 0  0.6171090763650112 0.2492366900333857 0  2.2 0.15375 0  0.5145586920831158 0.3648371739579888 0  1.57794966442982 0.3540357145964566 0  0.721875 0.3633107922168974 0  0.0496154796471391 0.333125 0  0.5843750000000001 0.3662560860076676 0  0.5810878747760798 0.1474002776121195 0  1.508991196088596 0.1421783375065625 0  0.8840670607017558 0.2640994375393898 0  0.09776612425612034 0.2204896805326566 0  1.50436820029908 0.06143401634903343 0  1.223857000523521 0.0823554862453532 0  1.153316824384777 0.1289850171317837 0  2.148922302309752 0.1258841779285271 0  0.309375 0.04312325590431198 0  1.621993280276081 0.2841214267927899 0  1.550118654119087 0.2461998729100966 0  1.327182649291491 0.1216967252533594 0  1.051977450479407 0.1221382572915816 0  1.753125 0.04556020050186112 0  1.271875 0.04556020050186116 0  0.9816084133102366 0.05126138213476004 0  1.039051841454368 0.0572224914831029 0  0.9719230514536006 0.3480477870845102 0  1.94956388244759 0.1180512551534177 0  1.949997712993411 0.04965831614304109 0  1.771961817615021 0.1530278789497521 0  1.909246823951428 0.2812757146784527 0  0.2459536687882397 0.04668633953831142 0  1.948575539857022 0.2445328248721197 0  1.697271520964565 0.1233917627620729 0  0.7964897648514618 0.1211426571931604 0  1.065625 0.3689344961371042 0  1.085849084308977 0.3170853572226867 0  0.4702981435440001 0.260434880697798 0  1.577403511714593 0.05463601888079143 0  0.05622663515370135 0.05493816910862376 0  0.3267207591099919 0.3566194660323104 0  0.9003051618565143 0.3564049499960621 0  1.751571320346033 0.3651102912045228 0  0.1583785085108421 0.2994699345738728 0  0.1455283439499995 0.3542795598723423 0  2.2 0.35875 0  0.2347662494194072 0.298325008655211 0  0.1527284455616188 0.1065771775690181 0  0.1382139529076665 0.05427454456341477 0  0.8749341636311069 0.05110114999892954 0  0.643661668713109 0.05693499781019222 0  1.466879772203159 0.3611261772912453 0  1.990280163552011 0.3564754268533217 0  1.17471064520912 0.2990917256188288 0  0.5202693090594349 0.206382495511728 0  0 0.25625 0  2.2 0.25625 0  2.2 0.05125 0  0 0.15375 0  1.853978576207987 0.35875 0  0.9787513713939683 0.1487523696999336 0  0.240625 0.3722153812029779 0  1.515638456102889 0.2882700110184686 0  0.09048297387599738 0.3637717362208066 0  2.150453692751374 0.2387066338105111 0  1.323782677156475 0.04897634338873398 0  0.8074131292871642 0.3624701995505916 0  1.409375 0.03715320121951221 0  1.406484531114799 0.1087852750766809 0  1.134375 0.03715320121951218 0  1.627401732573545 0.04552157221025036 0  0.1170173172005315 0.1427610859166811 0  2.045405893604797 0.1105340662939892 0  1.255408269734577 0.1577307500159216 0  2.028125 0.03707597992059326 0  0.4743610090857199 0.1421513964721819 0  0.9354010469015898 0.250631300585664 0  0.04420832937638274 0.128125 0  0.8922386349349938 0.0992956419364831 0  0.1197849154434487 0.2663398672460083 0  1.248258025468107 0.2565907092181813 0  0.3746885856929528 0.370723531618974 0  1.203125 0.0366132337404304 0  0.5724622277005015 0.2751253816079333 0  0.3365425205162783 0.08395777655057959 0  2.072662025974815 0.2975086504196739 0  0.4581080832182547 0.3648371739579888 0  0.3874522734668214 0.2295447548840689 0  0.7827853612484443 0.04106550386289586 0  1.887722846421017 0.1760882698830035 0  1.472640588990488 0.1118278026240017 0  1.865937103925594 0.2604137786483804 0  1.463913572748262 0.2030442564990043 0  1.376426316059077 0.3186741374914345 0  0.6641993820150034 0.3141688596240831 0  0.2943117490824315 0.2130987422685822 0  0.3478153998082709 0.1666571081082676 0  0.3427990510599805 0.2575950027870776 0  0.7997118993855807 0.2216171933356366 0  
[...]
<PointData  Scalars="f_23-2"> 
<DataArray  type="Float64"  Name="f_23-2"  format="ascii">7.8552869115140407e-13  9.8978689123701196e-12  4.4668988278106285e-46  4.0767368705401072e-46  1.1296147120244855e-07  1.7149949407025774e-07  1.1616023684469498e-07  3.8206121076343920e-08  1.5480607064788053e-08  8.5403535896733607e-09  5.7924699143736982e-09  7.1265280386388803e-09  1.2037872438512827e-08  3.1803867681126740e-08  1.6503695500091157e-20  1.2265824188215645e-20  1.1170960263128038e-10  3.4215129405671466e-11  2.3919812278703665e-11  2.1090818072492195e-09  9.5443042288242499e-10  7.5620218279496275e-33  6.5681859165870904e-33  3.2300267305575538e-15  3.8680302453889051e-15  1.8576337230571830e-26  1.4450877377625905e-26  2.4304280584616892e-39  1.6402310490410587e-39  3.0996447150490898e-28  9.1925803529579485e-35  9.8980907095521903e-11  4.5329769883732632e-16  5.3978277268208110e-22  9.0819725811648326e-45  5.9375628307907503e-08  7.7461568155878265e-40  9.7490857015681101e-43  4.6632979507101325e-43  4.4433960049711516e-45  7.8811028342977350e-10  4.3112988993032489e-10  1.7491889197866863e-36  3.8756651665483750e-25  1.2590000239109386e-29  2.9626751878971223e-36  1.2694837448650219e-29  1.9938174606559731e-13  7.7248016649530146e-18  1.1080511784357637e-17  4.5129494517430946e-13  7.5455584505601660e-13  4.1305763143361159e-10  6.9417507550554672e-11  2.3387444056233211e-23  4.6878616758136948e-19  1.8534951520052603e-23  1.5344652277480205e-31  9.3245449795042566e-20  2.8989471780775145e-32  5.5807822064736676e-14  1.2299189982261661e-24  1.4839618944856498e-08  1.6769416130611545e-37  1.9880267633455465e-42  1.1699469337868288e-36  2.1587430902041776e-10  2.9579189067404861e-10  2.8927392628320630e-08  1.6637171885613955e-11  3.2124613791315304e-11  1.8716446477977243e-42  4.4238636398236378e-09  4.5033370182829478e-09  2.4595971710138034e-09  5.4273780650917991e-12  4.3841094372489844e-40  2.6678752852235199e-27  8.3756537110335397e-30  1.2463941916268001e-12  5.1798533290974472e-18  1.1546670261232618e-15  3.5599602781872188e-39  4.9090241030907785e-34  4.7992464661234239e-23  6.0743205489124359e-45  4.9286214768846553e-22  2.6216551923482864e-29  3.6367315162479230e-17  5.6220642466646420e-27  6.6773990299115334e-21  1.5936682514376860e-37  5.0264761078041887e-10  1.8395905652833444e-34  1.6149792276186841e-07  2.8903780237587255e-12  7.1520678663317113e-18  4.7941934699264387e-09  3.6496387439698925e-26  1.9561692591125329e-08  1.7617250342559337e-09  1.1581363066249902e-44  2.4233914101709813e-43  5.0571079510677522e-25  1.8782206170770216e-16  2.8590977330989817e-30  1.2904612940650979e-09  4.1133710848798259e-36  1.7739830977798116e-34  5.6455012224941358e-22  2.6172842539245100e-41  1.8401229527509700e-09  2.7915578460256439e-08  1.1564689922314420e-08  1.6520510222682923e-15  2.0844680794293703e-10  9.8945935273388434e-09  8.8550418228780427e-11  1.3468028048089570e-08  6.7976330176007096e-27  2.6201092686565669e-25  5.2122402787000685e-25  1.4862670528537250e-14  1.9476989446106732e-14  3.4025104714727872e-33  3.0759175149279834e-20  2.7210845900447390e-19  5.2548762424105321e-19  1.6810039044198298e-23  2.0859048787819625e-32  9.1357154917533519e-09  1.7505530866346022e-21  2.0680248025567084e-17  2.9196905296060987e-14  3.6505687411164858e-31  4.8182376567686668e-12  4.3698793673310895e-11  2.9775521678262962e-09  1.0696856574382788e-16  6.3595858002643670e-12  2.4510065352411225e-12  4.5925063590101237e-16  7.1218192027679168e-10  1.2688220630427825e-09  2.9468868249578770e-31  1.7354267042881216e-31  8.9602010348539346e-36  7.5754940787095339e-38  3.2937429275357861e-28  5.2768136385473059e-28  7.8574300849215587e-38  1.3626637561959942e-44  5.9192291183295260e-14  1.8088077322108383e-16  1.9306929700495490e-10  9.1084392626159937e-10  1.1197494817942704e-10  3.5508210575930284e-10  7.0845386463821371e-11  7.6563932193272262e-22  5.7875711797049149e-12  3.9409495118794673e-12  3.5444819344382443e-19  1.6258177537629650e-34  3.6142670242405860e-41  3.3606495609619550e-41  7.1640543348966012e-25  2.3155510648029826e-20  3.4648063505997034e-33  1.0519121734293105e-43  6.0372215925178912e-32  2.6236154171106276e-23  5.3336364000397530e-14  1.9548059362651819e-26  1.2126901177914406e-07  5.2641308527880796e-09  7.1759559168542739e-08  3.4686834431746607e-43  1.6918098949580881e-41  2.1991913156446582e-40  1.4110742595449460e-38  8.5112832442534896e-38  4.4030607897846488e-42  2.0317040403055062e-23  7.3859028794881921e-31  3.3104100542171690e-13  6.6899361047650202e-12  5.2396167499565816e-08  2.0734644377337359e-33  1.1409329499812470e-24  6.4243895549969281e-41  7.4167195876974542e-29  2.0861130275017522e-29  3.5595870603786295e-21  1.1355497285900492e-35  1.1884298665370185e-35  3.6892338402774486e-38  9.4132098340113518e-11  1.1681044071813792e-11  1.0775987999853471e-11  5.0451924546169756e-10  2.3447609230035491e-08  1.1389360582111380e-21  2.5368405565270295e-13  6.3725986569574289e-19  3.3161884337594335e-23  2.0160870374544058e-27  5.5267890178631831e-26  1.4300888329781165e-09  4.5292544061943183e-10  9.3846402702904992e-11  3.1603997187387135e-36  1.0947047362848573e-43  8.7624013187094443e-10  7.4678191236212984e-45  2.4535227600561638e-10  2.0153799693750351e-30  9.4095152114640546e-13  2.0787590182659236e-11  5.2862355385459717e-11  2.6669548386756601e-09  3.1605961898295720e-28  1.3196530188210033e-14  4.5047556287917294e-10  1.6701391395685145e-28  5.2599268994198611e-22  2.9738841881400982e-20  8.4647091054350047e-44  5.8090881178886270e-09  5.3868481616778365e-31  3.4922546137951346e-29  3.7616221261272910e-24  4.2246358746292214e-18  1.6311460346237599e-34  2.2060629463402878e-23  3.1046891936817451e-17  2.4181680841202148e-18  4.9669895086314931e-17  6.8480275994664684e-39  2.8897523964835937e-39  1.8681316158879706e-34  6.7884097704534978e-38  6.3015852939851828e-09  8.9595300099091047e-39  9.6508279210529799e-33  5.6630977320177358e-13  3.7612073126333231e-19  4.2612964857263494e-19  2.3899919966656280e-08  2.9548236887188731e-30  1.2260813361631915e-10  4.2693125211934852e-09  9.4640045934282865e-16  1.1696573333484139e-34  5.8238002755166456e-09  6.5943351502453088e-10  2.1254897358344709e-45  1.7084296769379393e-08  8.5330526849870719e-09  2.0614378881128774e-09  3.5957241446915207e-15  2.7585046623792366e-11  7.8912159669652470e-28  2.7846334237946327e-40  6.8428921325902389e-21  2.0942495875586854e-08  6.4651560462387345e-11  7.3120294430156372e-45  2.8087301980288801e-45  1.0098221814898312e-10  5.3985679983092835e-37  1.7654828810415235e-16  2.0240891369665857e-09  1.6018442982331009e-28  5.7342233772166383e-11  1.0479612554196522e-43  1.7804829786266826e-24  3.9711144841449230e-14  1.2957788926718627e-26  5.6950439796034913e-26  1.3779392167532174e-20  1.6408782551600405e-31  3.5162580449549814e-09  2.7807706409527009e-41  1.9109060660289458e-22  2.4754975078237206e-41  2.5143583660597815e-08  1.4708708175208338e-15  1.7891655016639837e-10  5.5400406344322314e-15  2.4419859946968848e-09  2.6717367616780940e-22  1.9348845496167499e-09  5.2930160552591818e-22  1.9724051362820474e-09  1.3967517042420505e-08  6.0994350024815651e-42  7.0470951669367231e-10  1.0744220831331850e-07  1.1278962505009516e-13  3.2313821835872679e-37  1.7298851416973961e-27  9.0892550925647876e-37  3.9803996600043555e-27  1.8591655063546852e-25  4.0822839992259075e-11  1.6253808211944438e-07  1.0338068893671933e-07  4.5545274034157871e-08  8.5109126322440401e-13  2.2327667687022553e-33  1.5731654088294850e-34  3.2768101612645542e-43  2.3263272913150861e-11  6.5345759634693187e-12  6.8067954406044069e-17  1.1021312242978211e-17  7.3897764836598723e-19  1.5287964127896514e-25  4.4490899938428956e-08  4.4372693925329023e-42  2.0065082451628397e-30  5.6409704444441485e-10  3.1368600753221557e-11  1.3098303867889171e-35  1.0893478739643680e-10  8.2849010713822315e-40  2.2515574174528987e-44  8.6954498229991398e-44  2.0063668813654260e-42  3.4710674386275764e-10  7.0346190031973853e-13  4.8634387560908786e-32  4.6414357992452424e-35  2.6694305781815708e-40  7.9221517900673125e-10  2.6486870251140546e-25  4.0008983268780352e-21  6.9166479089388238e-29  4.8096862126270937e-31  1.9352088844899181e-30  5.8683283771527205e-16  7.9229721460465668e-34  1.9968067122169794e-33  2.0349425176205109e-18  4.3243308361652677e-18  1.2634117966330365e-44  1.0747800923697005e-44  1.5203272256652944e-12  5.1423197570303472e-11  1.7867047345790156e-13  3.1631934497021524e-15  1.7885052266462432e-14  3.3105444671957580e-31  1.3953820123997795e-35  6.2715028038896425e-37  2.5768658972774941e-30  2.1971741014307075e-39  9.7289125218647760e-08  2.2590872373533624e-08  5.0026652875276427e-37  2.3006552527154941e-19  7.2127245520197275e-34  1.5264253153520620e-32  1.8048959144000380e-16  6.0383050109802631e-09  1.8491182046011012e-10  1.9600780400518381e-41  4.2094158864467126e-17  3.3393682679120585e-29  9.8766213847238851e-23  2.4261250903291138e-42  7.2977920151662693e-28  2.6416573770236595e-09  2.4157686576226894e-18  7.0966302216285997e-08  3.8926710103820083e-30  1.0246127129776578e-12  1.0551823472758776e-08  6.2908292923630104e-09  9.9529649589713481e-12  5.9422024932958814e-20  6.3517762792508727e-14  1.1599974955525116e-19  7.9000036514121225e-20  1.0210574693791562e-09  5.4128872518454316e-44  3.6423981419168131e-24  2.6846879151946320e-40  3.5038137733952736e-14  1.0073366745165217e-38  4.5851482651539137e-37  1.4068147664277339e-38  1.6134500185465109e-38  2.1695252380813288e-28  3.1320230838592310e-33  1.4702290194943469e-32  1.0155241406409221e-31  2.0505146097757644e-11  4.7873948025286516e-15  1.8992934051761309e-08  2.4667144941599076e-12  1.4004151917715476e-41  5.1223587695338267e-26  1.1081449171124948e-10  4.1887326143281074e-17  1.7899577418498690e-10  1.4097035932055863e-10  1.2129309872649784e-08  7.4835068318834644e-35  8.9650114601122297e-12  1.1476027052157581e-16  6.5493859050665728e-12  1.0431295442490961e-27  9.8090011438646868e-11  2.0156877185185985e-20  2.6054539065944114e-14  4.2328181778548040e-41  8.4368756055624268e-27  2.6037204756067088e-09  7.6487359051618328e-10  2.4889062523199629e-28  1.0095004085890185e-09  1.8604185345729217e-09  3.4262037478103076e-08  8.3040515096656693e-09  7.9348333737080554e-09  3.1172023612769760e-08  7.0471300750702837e-09  8.6000802883881577e-09  2.6495480739389704e-15  3.2643281021828253e-11  2.2576740298181596e-29  7.9770824132637271e-34  6.9699647903303932e-23  1.4459330960055435e-33  2.4571538102965548e-23  4.0871061452429555e-25  1.8015074222027391e-25  6.4119872495690061e-19  2.3511335912528833e-32  2.6472468085755837e-24  2.1881575675801267e-39  1.3383975809593037e-09  5.9596632029940549e-09  3.3504835095209466e-21  2.8202156641651489e-22  4.5784605305880038e-10  8.1771916932524488e-09  1.1741886705227404e-30  2.9158370203270571e-32  3.4489648492560081e-08  1.6914494444154306e-08  4.2943263810578433e-08  3.0776059407147618e-11  2.8889629940432322e-08  9.8227781156461052e-32  3.4398103235523403e-30  1.7458582987086385e-29  1.7354963155137154e-10  5.9968297021531551e-37  1.0156849612765060e-12  1.5010484711103167e-41  1.1627705512571420e-40  6.4887287263435857e-24  1.4211729633270963e-07  8.3212133573027261e-43  6.6821403302984207e-43  4.9800790535183351e-44  9.1357624075448037e-35  2.3595420984748738e-29  1.8416678682967792e-17  3.2758051402968605e-17  1.1333321771051877e-16  4.5108206795510552e-12  3.4841991098673916e-26  1.3602916113831961e-19  8.0602967484676588e-17  5.1158501720561171e-16  1.0352529133800139e-15  9.4063098314785474e-15  2.8614345763208480e-44  3.8368559682180572e-43  3.8231011169931347e-18  6.4213187593103466e-39  2.1053470947124689e-43  4.2739459982480421e-12  3.0804099314789397e-21  2.2825645648668522e-15  1.3530604275905313e-36  3.7095833088554582e-35  2.9580085484158347e-09  5.7047623508749619e-09  9.1486988128675601e-10  1.0613676049390192e-15  1.5727065879909216e-07  2.5777183523038625e-16  6.1607944779515363e-13  3.0888254096207945e-21  3.1695938825562472e-21  2.0813448100537250e-24  7.4128918804471509e-26  8.0720581807000790e-26  3.2076481174033218e-20  2.2137875153547743e-26  4.8110236498007284e-43  7.8750024292742968e-23  1.0466914169875087e-14  1.6954811349408228e-10  1.6450965909503465e-07  5.4738713610478035e-08  2.0164125780964179e-09  1.2457930680724731e-09  1.0133402678654171e-09  3.1612185261438621e-09  2.2026949622060385e-10  5.4345661472885399e-11  1.9306820555316765e-36  8.1868928248490088e-23  3.1781944787531064e-16  1.8143628419443136e-09  4.0977068297100790e-09  1.0557718308575855e-09  3.0818959944823830e-26  8.1162546061872596e-34  8.2165373955318342e-40  1.0653860239953994e-40  3.7797032884614614e-39  2.6071669617806232e-24  2.2111089118984581e-20  2.5809898085324678e-21  5.6426002680405774e-10  7.9130547975885928e-26  9.1990636716753111e-20  1.8580443519040723e-45  9.2767128748214001e-44  3.6755594602909646e-21  3.3874416959006577e-27  8.0892410277071310e-29  2.4295675399791792e-35  6.7400794680286822e-20  3.4670412517582575e-35  1.4455865732525967e-13  2.0413760953050350e-27  2.0921922928678146e-13  2.1317691107479702e-45  5.4038281664432169e-17  6.8985515195818594e-10  3.8493085934854893e-10  2.3824940997848559e-10  1.9216863283776900e-10  6.7494439437621057e-10  1.6588849031140330e-09  2.2280479339985043e-11  1.9169124313421403e-12  1.5328239767419443e-14  2.1533097732511874e-09  8.7433333502387825e-12  4.9556896626405990e-11  1.3815932897000015e-11  7.8395555923912853e-11  1.1350980280859238e-12  2.6752402438887510e-18  9.9994335538513101e-23  5.2497864540013457e-32  2.7189542077887428e-40  3.3783787157999809e-24  5.7262192130212937e-42  2.2729935362305183e-40  6.5940968577255366e-34  1.8290893493165715e-40  2.6277394854359274e-13  1.1930417423651293e-26  1.4247070568398066e-20  1.1627604642844948e-08  3.4753003548238611e-24  8.4710567227034078e-24  6.0149519611497527e-21  3.8075635072479572e-29  3.9188256430885387e-28  1.8723053284680255e-38  7.8384854175825226e-09  4.4511869032520140e-27  3.8227716745142298e-27  9.0996671058167988e-33  1.3956283901380999e-37  7.8658002092146748e-33  1.6764533219103265e-08  1.9429080698773691e-10  6.3957645273125507e-36  5.4798391972878714e-32  1.0868262782608452e-23  2.2410383238197712e-38  1.0487910446745230e-28  8.1759001561562380e-14  1.7295654783916214e-18  1.2221733223938793e-17  9.1887141046278858e-11  1.8555801014721023e-08  4.3520174271809343e-31  1.1674490186956650e-11  3.3897318872946557e-42  2.2934595518109899e-42  6.4699398150056592e-18  2.0719484374546014e-12  7.7028325674709365e-25  6.0149615824296581e-10  1.1733764868231557e-22  3.9758059868462679e-38  6.4883370215415124e-38  9.6309605222712654e-11  1.9100338232183405e-42  5.1981075037275885e-09  1.6952008116841099e-10  2.2840667974226810e-11  6.6841685028134781e-15  4.3174662971961045e-41  4.4310688777801530e-36  3.7098437018862455e-18  2.9675207810806421e-36  7.4631858510092931e-33  3.6817482882699708e-36  2.5311587781354312e-39  3.2937764758036831e-44  7.5396145073561895e-09  6.6779764224614481e-16  1.0252713109685564e-29  1.2187890979762657e-13  2.8176062495016017e-16  4.4470796936105055e-30  1.3489846411689663e-31  9.2706133607385753e-09  1.3062785564534800e-38  9.2849430969541398e-08  2.4228125904040681e-30  1.1381047492829439e-07  3.5390786241665634e-08  1.1747247662233512e-09  7.7917141299995328e-10  4.3553418096948320e-31  1.4524073144964637e-19  9.7335048661876056e-29  9.0386613519305365e-09  1.4124728856669505e-24  3.3973625989621012e-16  1.1936724531742504e-12  1.6493884293423720e-09  8.3140569263047792e-38  1.6452833020016419e-11  6.7461112168711678e-39  8.7341257413277085e-22  7.5662668029060180e-15  2.5749238550257032e-30  2.2477940554066239e-35  1.2821108210747735e-18  1.6701296039139614e-21  3.0214521428327426e-09  6.3633617200337440e-34  2.1366440513982338e-11  1.7228587591050467e-22  8.8107592159383069e-22  1.4886739399787990e-20  8.8447051620260526e-32  9.9467741068368639e-28  4.2910561867659682e-35  4.0088069737184728e-36  2.8735398753109802e-42  9.9936464844851063e-29  2.4311635647738488e-40  1.0894434703586217e-11  2.0364342522223507e-11  5.5713889513832701e-29  9.4118820818879790e-38  1.2985787838602333e-23  6.9302617159520399e-10  2.0154951028404733e-09  1.4005095639012526e-29  2.3116028366172043e-09  1.6457954980136551e-09  8.7605413542455823e-09  1.1182184179573018e-39  4.9384910949077739e-08  2.5506607278099048e-25  9.2720281311664575e-09  8.3990744159184896e-23  4.6295983906697320e-37  1.9247047251763618e-16  8.0481098867972937e-11  2.6862209578199837e-08  2.6025313165916662e-09  7.8627244655925743e-43  1.5137891809986757e-12  2.5457482304244721e-36  1.0032100454516789e-21  4.2404507793495249e-31  3.7190471923069091e-37  7.9340697095312438e-45  3.8863124686061219e-19  4.0837508220350001e-10  5.8970205874674405e-19  1.4135463492246294e-19  8.1767301827117783e-14  1.5639319651281337e-31  2.5910534516914571e-10  1.7608877761211548e-44  2.2678851436556409e-17  1.1881147005965528e-41  1.4223340766135051e-17  3.2204529529913991e-10  1.3703884986446910e-09  1.7531767990981568e-37  5.0885178410019832e-15  1.7625960591866647e-25  7.2827269674609302e-27  1.6833657214090511e-27  8.0766679705342003e-28  1.9839790734817868e-27  3.5089077672910867e-37  1.9885112110104690e-14  2.7202248709237960e-12  1.5670273590600510e-17  2.6205424531874527e-12  8.3645687357931211e-14  2.6539237900597340e-25  3.4295823576885906e-26  2.8528235281773034e-13  7.5364517954216101e-20  5.7425434219688776e-37  1.0333685710344894e-15  3.1220317393949758e-10  7.3660559768367068e-10  3.4954296291335039e-12  5.8266104606769149e-45  5.2602449454301720e-09  1.6940489728467392e-22  5.0965217774175170e-23  1.1555337852757896e-14  5.6499114504114819e-24  1.7344962858945302e-13  8.1645142872882570e-34  5.3876428206367546e-14  9.0745823911738857e-20  1.1302170028424882e-10  1.1125455993138218e-07  4.3514768847630790e-41  8.3890713691254886e-19  2.3788485455165534e-13  5.4467802859224969e-10  1.4285730660632024e-27  1.5807318113695484e-31  2.6274478979608788e-09  2.4500998662713961e-12  1.7112775190302845e-12  1.2349466136032417e-09  1.7188838459114966e-08  1.9695693384162206e-35  1.2209692828100821e-43  2.9826041007301317e-43  2.1450842449627087e-44  6.3647579533864370e-11  6.8042501178417201e-37  6.0044458179691169e-40  5.5810656486172840e-18  2.6446281962563520e-24  2.0989556781653592e-34  2.5053361835722769e-35  2.6720601119581511e-30  3.3889349949686679e-11  7.1520347267889211e-21  1.3923695708167710e-20  1.3198719341439553e-08  2.9680099427746918e-24  3.8392957736912523e-22  1.9191956412449427e-18  7.6547866552130008e-19  2.5240399898651372e-13  2.6218525695422532e-10  7.7868500436125662e-10  1.7591977667470124e-23  6.1658524613752436e-10  6.9695449793038991e-09  1.0335654315404559e-10  1.9787671902349601e-10  3.6358688262242648e-09  4.5949087071105715e-20  1.6063200253585486e-09  7.3443435391397073e-12  7.3712523229098267e-45  1.0781274977258158e-10  1.1580194183585818e-10  4.1416917538512024e-30  4.6321716104724380e-31  1.1988063417206336e-08  3.4735913174924904e-38  2.5771096480668619e-11  6.9065779606649123e-08  6.4475119600080721e-12  1.6072681542811586e-10  4.2066339635120102e-09  3.1482774855537392e-09  1.3511789890885928e-38  3.1797522853901483e-42  8.3876851901212158e-10  1.1494910523003868e-28  1.2719419195724217e-29  8.8319777146204515e-30  7.4735889372828795e-25  1.6565998063043809e-21  1.0053338166933057e-30  1.7727306429129235e-35  3.9971074211618500e-11  3.3553798685171994e-35  1.5880826413622373e-38  3.6188674655285574e-39  5.0551115763521227e-09  5.7454788429116678e-08  6.7771425298037128e-34  9.5317072858245106e-13  3.2948045944068644e-34  5.1878548257459195e-22  1.3810534588067606e-26  4.4784165888419070e-15  1.0980743168623514e-10  4.9666284983812917e-37  2.8778318509018253e-09  7.0462337125921299e-23  1.0664789123093628e-08  1.7818612285853954e-08  1.8121587428376647e-32  8.9627426287818